Tue Jan 19 14:22:16 -02 2021
flame4
 Entering Gaussian System, Link 0=/usr/local/bin/G09/G09d/g09/g09
 Initial command:
 /usr/local/bin/G09/G09d//g09/l1.exe "/work/danielmachado/job-23493/Gau-8678.inp" -scrdir="/work/danielmachado/job-23493/"
 Entering Link 1 = /usr/local/bin/G09/G09d//g09/l1.exe PID=      8680.
  
 Copyright (c) 1988,1990,1992,1993,1995,1998,2003,2009,2013,
            Gaussian, Inc.  All Rights Reserved.
  
 This is part of the Gaussian(R) 09 program.  It is based on
 the Gaussian(R) 03 system (copyright 2003, Gaussian, Inc.),
 the Gaussian(R) 98 system (copyright 1998, Gaussian, Inc.),
 the Gaussian(R) 94 system (copyright 1995, Gaussian, Inc.),
 the Gaussian 92(TM) system (copyright 1992, Gaussian, Inc.),
 the Gaussian 90(TM) system (copyright 1990, Gaussian, Inc.),
 the Gaussian 88(TM) system (copyright 1988, Gaussian, Inc.),
 the Gaussian 86(TM) system (copyright 1986, Carnegie Mellon
 University), and the Gaussian 82(TM) system (copyright 1983,
 Carnegie Mellon University). Gaussian is a federally registered
 trademark of Gaussian, Inc.
  
 This software contains proprietary and confidential information,
 including trade secrets, belonging to Gaussian, Inc.
  
 This software is provided under written license and may be
 used, copied, transmitted, or stored only in accord with that
 written license.
  
 The following legend is applicable only to US Government
 contracts under FAR:
  
                    RESTRICTED RIGHTS LEGEND
  
 Use, reproduction and disclosure by the US Government is
 subject to restrictions as set forth in subparagraphs (a)
 and (c) of the Commercial Computer Software - Restricted
 Rights clause in FAR 52.227-19.
  
 Gaussian, Inc.
 340 Quinnipiac St., Bldg. 40, Wallingford CT 06492
  
  
 ---------------------------------------------------------------
 Warning -- This program may not be used in any manner that
 competes with the business of Gaussian, Inc. or will provide
 assistance to any competitor of Gaussian, Inc.  The licensee
 of this program is prohibited from giving any competitor of
 Gaussian, Inc. access to this program.  By using this program,
 the user acknowledges that Gaussian, Inc. is engaged in the
 business of creating and licensing software in the field of
 computational chemistry and represents and warrants to the
 licensee that it is not a competitor of Gaussian, Inc. and that
 it will not use this program in any manner prohibited above.
 ---------------------------------------------------------------
  

 Cite this work as:
 Gaussian 09, Revision D.01,
 M. J. Frisch, G. W. Trucks, H. B. Schlegel, G. E. Scuseria, 
 M. A. Robb, J. R. Cheeseman, G. Scalmani, V. Barone, B. Mennucci, 
 G. A. Petersson, H. Nakatsuji, M. Caricato, X. Li, H. P. Hratchian, 
 A. F. Izmaylov, J. Bloino, G. Zheng, J. L. Sonnenberg, M. Hada, 
 M. Ehara, K. Toyota, R. Fukuda, J. Hasegawa, M. Ishida, T. Nakajima, 
 Y. Honda, O. Kitao, H. Nakai, T. Vreven, J. A. Montgomery, Jr., 
 J. E. Peralta, F. Ogliaro, M. Bearpark, J. J. Heyd, E. Brothers, 
 K. N. Kudin, V. N. Staroverov, T. Keith, R. Kobayashi, J. Normand, 
 K. Raghavachari, A. Rendell, J. C. Burant, S. S. Iyengar, J. Tomasi, 
 M. Cossi, N. Rega, J. M. Millam, M. Klene, J. E. Knox, J. B. Cross, 
 V. Bakken, C. Adamo, J. Jaramillo, R. Gomperts, R. E. Stratmann, 
 O. Yazyev, A. J. Austin, R. Cammi, C. Pomelli, J. W. Ochterski, 
 R. L. Martin, K. Morokuma, V. G. Zakrzewski, G. A. Voth, 
 P. Salvador, J. J. Dannenberg, S. Dapprich, A. D. Daniels, 
 O. Farkas, J. B. Foresman, J. V. Ortiz, J. Cioslowski, 
 and D. J. Fox, Gaussian, Inc., Wallingford CT, 2013.
 
 ******************************************
 Gaussian 09:  EM64L-G09RevD.01 24-Apr-2013
                19-Jan-2021 
 ******************************************
 %nprocshared=8
 Will use up to    8 processors via shared memory.
 %chk=ONL_VSNS_0_M062X.chk
 %mem=40GB
 ---------------------------------------------------------------
 #p M11/6-311+g(d) polar=gamma pop=chelpg density=current NoSymm
 ---------------------------------------------------------------
 1/30=1,38=101,83=1,84=49/1,6;
 2/12=2,15=1,17=6,18=5,40=1/2;
 3/5=4,6=6,7=11,11=2,16=1,25=1,30=1,74=-64/1,2,3;
 4/69=2/1;
 5/5=2,38=5,96=-2,98=1/2;
 8/6=4,10=90,11=11/1;
 10/6=20001,13=10,31=1,60=-2,72=3/2;
 6/7=2,8=2,9=2,10=2,12=2,15=8,20=3,22=-1,28=1/1,2;
 1/38=100,84=49/6(1);
 99/9=1/99;
 3/5=4,6=6,7=11,11=2,14=-3,16=1,25=1,30=1,74=-64/1,2,3;
 4/5=5,16=3,69=2/1;
 5/5=2,38=5,96=-2,98=1/2;
 8/6=4,10=90,11=11/1;
 10/6=20001,13=10,31=1,60=-2,72=3/2;
 6/7=2,8=2,9=2,10=2,12=2,15=8,20=3,22=-1,28=1/1,2;
 1/38=100,84=49/6(-6);
 99/9=1/99;
 Leave Link    1 at Tue Jan 19 14:22:16 2021, MaxMem=  5368709120 cpu:         0.8
 (Enter /usr/local/bin/G09/G09d//g09/l101.exe)
 ----------------
 ONL_VSNS_0_M062X
 ----------------
 Symbolic Z-matrix:
 Charge =  0 Multiplicity = 1
 C                     4.98133   0.07155   10.99325 
 H                     5.23719  -0.32115   11.79686 
 C                     3.7217   -0.11565   10.5386 
 H                     3.11544  -0.62234   11.02761 
 C                     3.34862   0.45677   9.33804 
 H                     2.4866    0.33696   9.00914 
 C                     4.26051   1.20058   8.63782 
 H                     4.00856   1.58413   7.82896 
 C                     5.55412   1.39568   9.10858 
 C                     6.57124   2.13965   8.39308 
 H                     7.42429   2.18483   8.76258 
 C                     6.35253   2.76224   7.23673 
 H                     5.48763   2.71315   6.90027 
 C                     7.31363   3.51021   6.44003 
 C                     6.85988   4.16208   5.28566 
 H                     5.96494   4.08678   5.04453 
 C                     7.70674   4.9103    4.50079 
 C                     9.05421   5.00531   4.84514 
 C                     9.51653   4.35053   5.97536 
 H                     10.41551   4.4071    6.20498 
 C                     8.65614   3.61754   6.76302 
 H                     8.98097   3.18906   7.52159 
 C                     7.20934   0.99507   10.904 
 H                     7.24359   0.54579   11.75248 
 H                     7.87411   0.62483   10.31917 
 H                     7.37961   1.93107   11.03089 
 C                     11.21177   5.8215    4.26788 
 H                     11.57252   4.93293   4.30486 
 H                     11.64378   6.31405   3.56684 
 H                     11.3604   6.26246   5.10699 
 N                     5.87483   0.81453   10.30602 
 O                     7.30398   5.57656   3.38619 
 O                     9.82406   5.75503   4.00965 
 H                     6.49145   5.35808   3.18878 
 C                     11.62573   3.48916   8.89704 
 C                     11.79932   4.84024   8.82488 
 H                     11.33383   5.39885   9.40527 
 C                     12.68416   5.39386   7.87153 
 C                     12.89537   6.78912   7.75072 
 H                     12.44306   7.37485   8.31385 
 C                     13.75627   7.27834   6.8166 
 H                     13.88194   8.19686   6.74412 
 C                     14.4509   6.41805   5.96681 
 H                     15.03555   6.76666   5.33217 
 C                     14.27951   5.07603   6.05935 
 H                     14.7544   4.51277   5.49326 
 C                     13.3881   4.52192   7.00497 
 C                     13.18617   3.12998   7.11608 
 H                     13.6492   2.55174   6.55344 
 C                     12.32488   2.62413   8.03524 
 H                     12.19641   1.70477   8.09524 
 O                     9.41348   3.68285   10.23518 
 O                     11.30497   2.65907   11.32709 
 O                     10.13132   1.50941   9.5703 
 S                     10.53712   2.7902    10.10845 
 O                     3.56023   2.18982   5.30029 
 H                     4.02235   2.14656   4.62045 
 H                     3.32543   3.02016   5.39792 
 O                     4.82587   4.92294   2.76192 
 H                     4.70523   4.29312   2.36858 
 H                     4.0966    5.3664    2.84361 
 
 NAtoms=     61 NQM=       61 NQMF=       0 NMMI=      0 NMMIF=      0
                NMic=       0 NMicF=      0.
                    Isotopes and Nuclear Properties:
 (Nuclear quadrupole moments (NQMom) in fm**2, nuclear magnetic moments (NMagM)
  in nuclear magnetons)

  Atom         1           2           3           4           5           6           7           8           9          10
 IAtWgt=          12           1          12           1          12           1          12           1          12          12
 AtmWgt=  12.0000000   1.0078250  12.0000000   1.0078250  12.0000000   1.0078250  12.0000000   1.0078250  12.0000000  12.0000000
 NucSpn=           0           1           0           1           0           1           0           1           0           0
 AtZEff=   0.0000000   0.0000000   0.0000000   0.0000000   0.0000000   0.0000000   0.0000000   0.0000000   0.0000000   0.0000000
 NQMom=    0.0000000   0.0000000   0.0000000   0.0000000   0.0000000   0.0000000   0.0000000   0.0000000   0.0000000   0.0000000
 NMagM=    0.0000000   2.7928460   0.0000000   2.7928460   0.0000000   2.7928460   0.0000000   2.7928460   0.0000000   0.0000000
 AtZNuc=   6.0000000   1.0000000   6.0000000   1.0000000   6.0000000   1.0000000   6.0000000   1.0000000   6.0000000   6.0000000

  Atom        11          12          13          14          15          16          17          18          19          20
 IAtWgt=           1          12           1          12          12           1          12          12          12           1
 AtmWgt=   1.0078250  12.0000000   1.0078250  12.0000000  12.0000000   1.0078250  12.0000000  12.0000000  12.0000000   1.0078250
 NucSpn=           1           0           1           0           0           1           0           0           0           1
 AtZEff=   0.0000000   0.0000000   0.0000000   0.0000000   0.0000000   0.0000000   0.0000000   0.0000000   0.0000000   0.0000000
 NQMom=    0.0000000   0.0000000   0.0000000   0.0000000   0.0000000   0.0000000   0.0000000   0.0000000   0.0000000   0.0000000
 NMagM=    2.7928460   0.0000000   2.7928460   0.0000000   0.0000000   2.7928460   0.0000000   0.0000000   0.0000000   2.7928460
 AtZNuc=   1.0000000   6.0000000   1.0000000   6.0000000   6.0000000   1.0000000   6.0000000   6.0000000   6.0000000   1.0000000

  Atom        21          22          23          24          25          26          27          28          29          30
 IAtWgt=          12           1          12           1           1           1          12           1           1           1
 AtmWgt=  12.0000000   1.0078250  12.0000000   1.0078250   1.0078250   1.0078250  12.0000000   1.0078250   1.0078250   1.0078250
 NucSpn=           0           1           0           1           1           1           0           1           1           1
 AtZEff=   0.0000000   0.0000000   0.0000000   0.0000000   0.0000000   0.0000000   0.0000000   0.0000000   0.0000000   0.0000000
 NQMom=    0.0000000   0.0000000   0.0000000   0.0000000   0.0000000   0.0000000   0.0000000   0.0000000   0.0000000   0.0000000
 NMagM=    0.0000000   2.7928460   0.0000000   2.7928460   2.7928460   2.7928460   0.0000000   2.7928460   2.7928460   2.7928460
 AtZNuc=   6.0000000   1.0000000   6.0000000   1.0000000   1.0000000   1.0000000   6.0000000   1.0000000   1.0000000   1.0000000

  Atom        31          32          33          34          35          36          37          38          39          40
 IAtWgt=          14          16          16           1          12          12           1          12          12           1
 AtmWgt=  14.0030740  15.9949146  15.9949146   1.0078250  12.0000000  12.0000000   1.0078250  12.0000000  12.0000000   1.0078250
 NucSpn=           2           0           0           1           0           0           1           0           0           1
 AtZEff=   0.0000000   0.0000000   0.0000000   0.0000000   0.0000000   0.0000000   0.0000000   0.0000000   0.0000000   0.0000000
 NQMom=    2.0440000   0.0000000   0.0000000   0.0000000   0.0000000   0.0000000   0.0000000   0.0000000   0.0000000   0.0000000
 NMagM=    0.4037610   0.0000000   0.0000000   2.7928460   0.0000000   0.0000000   2.7928460   0.0000000   0.0000000   2.7928460
 AtZNuc=   7.0000000   8.0000000   8.0000000   1.0000000   6.0000000   6.0000000   1.0000000   6.0000000   6.0000000   1.0000000

  Atom        41          42          43          44          45          46          47          48          49          50
 IAtWgt=          12           1          12           1          12           1          12          12           1          12
 AtmWgt=  12.0000000   1.0078250  12.0000000   1.0078250  12.0000000   1.0078250  12.0000000  12.0000000   1.0078250  12.0000000
 NucSpn=           0           1           0           1           0           1           0           0           1           0
 AtZEff=   0.0000000   0.0000000   0.0000000   0.0000000   0.0000000   0.0000000   0.0000000   0.0000000   0.0000000   0.0000000
 NQMom=    0.0000000   0.0000000   0.0000000   0.0000000   0.0000000   0.0000000   0.0000000   0.0000000   0.0000000   0.0000000
 NMagM=    0.0000000   2.7928460   0.0000000   2.7928460   0.0000000   2.7928460   0.0000000   0.0000000   2.7928460   0.0000000
 AtZNuc=   6.0000000   1.0000000   6.0000000   1.0000000   6.0000000   1.0000000   6.0000000   6.0000000   1.0000000   6.0000000

  Atom        51          52          53          54          55          56          57          58          59          60
 IAtWgt=           1          16          16          16          32          16           1           1          16           1
 AtmWgt=   1.0078250  15.9949146  15.9949146  15.9949146  31.9720718  15.9949146   1.0078250   1.0078250  15.9949146   1.0078250
 NucSpn=           1           0           0           0           0           0           1           1           0           1
 AtZEff=   0.0000000   0.0000000   0.0000000   0.0000000   0.0000000   0.0000000   0.0000000   0.0000000   0.0000000   0.0000000
 NQMom=    0.0000000   0.0000000   0.0000000   0.0000000   0.0000000   0.0000000   0.0000000   0.0000000   0.0000000   0.0000000
 NMagM=    2.7928460   0.0000000   0.0000000   0.0000000   0.0000000   0.0000000   2.7928460   2.7928460   0.0000000   2.7928460
 AtZNuc=   1.0000000   8.0000000   8.0000000   8.0000000  16.0000000   8.0000000   1.0000000   1.0000000   8.0000000   1.0000000

  Atom        61
 IAtWgt=           1
 AtmWgt=   1.0078250
 NucSpn=           1
 AtZEff=   0.0000000
 NQMom=    0.0000000
 NMagM=    2.7928460
 AtZNuc=   1.0000000
 Using perturbation frequencies:    0.000000    0.072000
 Leave Link  101 at Tue Jan 19 14:22:16 2021, MaxMem=  5368709120 cpu:         1.3
 (Enter /usr/local/bin/G09/G09d//g09/l106.exe)
 Differentiate once with respect to electric field.
 Nuclear step= 0.001000 Angstroms, electric field step= 0.000333 atomic units, NStep=1.
 Leave Link  106 at Tue Jan 19 14:22:17 2021, MaxMem=  5368709120 cpu:         0.0
 (Enter /usr/local/bin/G09/G09d//g09/l202.exe)
 Symmetry turned off by external request.
 Stoichiometry    C25H27NO7S
 Framework group  C1[X(C25H27NO7S)]
 Deg. of freedom   177
 Full point group                 C1      NOp   1
                          Input orientation:                          
 ---------------------------------------------------------------------
 Center     Atomic      Atomic             Coordinates (Angstroms)
 Number     Number       Type             X           Y           Z
 ---------------------------------------------------------------------
      1          6           0        4.981328    0.071552   10.993252
      2          1           0        5.237190   -0.321152   11.796859
      3          6           0        3.721703   -0.115648   10.538604
      4          1           0        3.115443   -0.622336   11.027606
      5          6           0        3.348624    0.456768    9.338043
      6          1           0        2.486605    0.336960    9.009138
      7          6           0        4.260512    1.200576    8.637825
      8          1           0        4.008560    1.584128    7.828959
      9          6           0        5.554116    1.395680    9.108582
     10          6           0        6.571241    2.139654    8.393078
     11          1           0        7.424292    2.184832    8.762582
     12          6           0        6.352534    2.762240    7.236733
     13          1           0        5.487633    2.713152    6.900267
     14          6           0        7.313628    3.510208    6.440030
     15          6           0        6.859881    4.162080    5.285657
     16          1           0        5.964942    4.086784    5.044526
     17          6           0        7.706735    4.910298    4.500788
     18          6           0        9.054207    5.005312    4.845144
     19          6           0        9.516534    4.350528    5.975355
     20          1           0       10.415511    4.407104    6.204980
     21          6           0        8.656140    3.617536    6.763017
     22          1           0        8.980968    3.189056    7.521586
     23          6           0        7.209337    0.995072   10.903999
     24          1           0        7.243593    0.545792   11.752479
     25          1           0        7.874112    0.624832   10.319170
     26          1           0        7.379610    1.931072   11.030893
     27          6           0       11.211774    5.821504    4.267876
     28          1           0       11.572521    4.932928    4.304859
     29          1           0       11.643778    6.314048    3.566836
     30          1           0       11.360398    6.262464    5.106986
     31          7           0        5.874834    0.814528   10.306020
     32          8           0        7.303978    5.576563    3.386193
     33          8           0        9.824057    5.755027    4.009650
     34          1           0        6.491451    5.358080    3.188784
     35          6           0       11.625734    3.489158    8.897037
     36          6           0       11.799321    4.840243    8.824879
     37          1           0       11.333829    5.398848    9.405271
     38          6           0       12.684164    5.393856    7.871531
     39          6           0       12.895367    6.789120    7.750719
     40          1           0       12.443058    7.374848    8.313851
     41          6           0       13.756273    7.278336    6.816602
     42          1           0       13.881943    8.196864    6.744115
     43          6           0       14.450900    6.418048    5.966807
     44          1           0       15.035548    6.766656    5.332174
     45          6           0       14.279507    5.076032    6.059348
     46          1           0       14.754396    4.512768    5.493257
     47          6           0       13.388097    4.521920    7.004971
     48          6           0       13.186172    3.129984    7.116085
     49          1           0       13.649195    2.551744    6.553445
     50          6           0       12.324882    2.624128    8.035244
     51          1           0       12.196412    1.704768    8.095239
     52          8           0        9.413483    3.682848   10.235176
     53          8           0       11.304968    2.659072   11.327088
     54          8           0       10.131317    1.509414    9.570298
     55         16           0       10.537122    2.790195   10.108447
     56          8           0        3.560232    2.189824    5.300286
     57          1           0        4.022351    2.146560    4.620450
     58          1           0        3.325427    3.020160    5.397922
     59          8           0        4.825874    4.922944    2.761915
     60          1           0        4.705227    4.293120    2.368577
     61          1           0        4.096599    5.366400    2.843607
 ---------------------------------------------------------------------
 Rotational constants (GHZ):      0.1356477      0.0772839      0.0516543
 Leave Link  202 at Tue Jan 19 14:22:17 2021, MaxMem=  5368709120 cpu:         0.0
 (Enter /usr/local/bin/G09/G09d//g09/l301.exe)
 Standard basis: 6-311+G(d) (5D, 7F)
 Ernie: Thresh=  0.10000D-02 Tol=  0.10000D-05 Strict=F.
   837 basis functions,  1373 primitive gaussians,   871 cartesian basis functions
   128 alpha electrons      128 beta electrons
       nuclear repulsion energy      3776.8843146181 Hartrees.
 IExCor= 5042 DFT=T Ex+Corr=M11 ExCW=0 ScaHFX=  1.000000
 ScaDFX=  1.000000  1.000000  1.000000  1.000000 ScalE2=  1.000000  1.000000
 IRadAn=      0 IRanWt=     -1 IRanGd=            0 ICorTp=0 IEmpDi=  4
  HFx wShort=  0.000000 wLong=  0.250000 cFull=  0.428000 cShort=  0.000000 cLong=  0.572000
  DFx wShort=  0.000000 wLong=  0.250000 cFull=  0.000000 cShort=  0.000000 cLong=  1.000000
 NAtoms=   61 NActive=   61 NUniq=   61 SFac= 1.00D+00 NAtFMM=   60 NAOKFM=T Big=T
 Integral buffers will be    131072 words long.
 Raffenetti 2 integral format.
 Two-electron integral symmetry is turned off.
 Leave Link  301 at Tue Jan 19 14:22:17 2021, MaxMem=  5368709120 cpu:         0.6
 (Enter /usr/local/bin/G09/G09d//g09/l302.exe)
 NPDir=0 NMtPBC=     1 NCelOv=     1 NCel=       1 NClECP=     1 NCelD=      1
         NCelK=      1 NCelE2=     1 NClLst=     1 CellRange=     0.0.
 One-electron integrals computed using PRISM.
 NBasis=   837 RedAO= T EigKep=  1.14D-06  NBF=   837
 NBsUse=   827 1.00D-06 EigRej=  8.99D-07 NBFU=   827
 Precomputing XC quadrature grid using
 IXCGrd= 4 IRadAn=           0 IRanWt=          -1 IRanGd=           0 AccXCQ= 0.00D+00.
 Generated NRdTot=       0 NPtTot=           0 NUsed=           0 NTot=          32
 NSgBfM=   853   853   853   853   853 MxSgAt=    61 MxSgA2=    61.
 Leave Link  302 at Tue Jan 19 14:22:19 2021, MaxMem=  5368709120 cpu:        16.0
 (Enter /usr/local/bin/G09/G09d//g09/l303.exe)
 DipDrv:  MaxL=1.
 Leave Link  303 at Tue Jan 19 14:22:19 2021, MaxMem=  5368709120 cpu:         1.8
 (Enter /usr/local/bin/G09/G09d//g09/l401.exe)
 ExpMin= 4.05D-02 ExpMax= 9.34D+04 ExpMxC= 3.17D+03 IAcc=2 IRadAn=         4 AccDes= 0.00D+00
 Harris functional with IExCor= 1009 and IRadAn=       4 diagonalized for initial guess.
 HarFok:  IExCor= 1009 AccDes= 0.00D+00 IRadAn=         4 IDoV= 1 UseB2=F ITyADJ=14
 ICtDFT=  3500011 ScaDFX=  1.000000  1.000000  1.000000  1.000000
 FoFCou: FMM=F IPFlag=           0 FMFlag=      100000 FMFlg1=        2001
         NFxFlg=           0 DoJE=T BraDBF=F KetDBF=T FulRan=T
         wScrn=  0.000000 ICntrl=     500 IOpCl=  0 I1Cent=   200000004 NGrid=           0
         NMat0=    1 NMatS0=      1 NMatT0=    0 NMatD0=    1 NMtDS0=    0 NMtDT0=    0
 Symmetry not used in FoFCou.
 Harris En= -1910.04809712537    
 JPrj=0 DoOrth=F DoCkMO=F.
 Leave Link  401 at Tue Jan 19 14:22:26 2021, MaxMem=  5368709120 cpu:        48.7
 (Enter /usr/local/bin/G09/G09d//g09/l502.exe)
 Closed shell SCF:
 Using DIIS extrapolation, IDIIS=  1040.
 Two-electron integral symmetry not used.
 IVT=     2306789 IEndB=     2306789 NGot=  5368709120 MDV=  5367178484
 LenX=  5367178484 LenY=  5366418972
 Requested convergence on RMS density matrix=1.00D-08 within 128 cycles.
 Requested convergence on MAX density matrix=1.00D-06.
 Requested convergence on             energy=1.00D-06.
 No special actions if energy rises.
 Fock matrices will be formed incrementally for  20 cycles.

 Cycle   1  Pass 1  IDiag  1:
 FoFJK:  IHMeth= 1 ICntrl=       0 DoSepK=T KAlg= 0 I1Cent=   0 FoldK=F
 IRaf=         1 NMat=   1 IRICut=       1 DoRegI=T DoRafI=F ISym2E= 0.
 FoFCou: FMM=T IPFlag=           0 FMFlag=      100000 FMFlg1=        2001
         NFxFlg=           0 DoJE=T BraDBF=F KetDBF=F FulRan=T
         wScrn=  0.000000 ICntrl=     500 IOpCl=  0 I1Cent=           0 NGrid=           0
         NMat0=    1 NMatS0=      1 NMatT0=    0 NMatD0=    1 NMtDS0=    0 NMtDT0=    0
 Symmetry not used in FoFCou.
 FMM levels:  10  Number of levels for PrismC:   9
 E= -1946.36764976108    
 DIIS: error= 3.23D-02 at cycle   1 NSaved=   1.
 NSaved= 1 IEnMin= 1 EnMin= -1946.36764976108     IErMin= 1 ErrMin= 3.23D-02
 ErrMax= 3.23D-02  0.00D+00 EMaxC= 1.00D-01 BMatC= 1.34D+00 BMatP= 1.34D+00
 IDIUse=3 WtCom= 6.77D-01 WtEn= 3.23D-01
 Coeff-Com:  0.100D+01
 Coeff-En:   0.100D+01
 Coeff:      0.100D+01
 Gap=     0.253 Goal=   None    Shift=    0.000
 GapD=    0.253 DampG=1.000 DampE=0.500 DampFc=0.5000 IDamp=-1.
 Damping current iteration by 5.00D-01
 RMSDP=9.70D-02 MaxDP=1.35D+01              OVMax= 1.67D-01

 Cycle   2  Pass 1  IDiag  1:
 RMSU=  2.69D-02    CP:  1.38D+00
 E= -1946.84177488543     Delta-E=       -0.474125124345 Rises=F Damp=T
 DIIS: error= 1.13D-02 at cycle   2 NSaved=   2.
 NSaved= 2 IEnMin= 2 EnMin= -1946.84177488543     IErMin= 2 ErrMin= 1.13D-02
 ErrMax= 1.13D-02  0.00D+00 EMaxC= 1.00D-01 BMatC= 1.10D-01 BMatP= 1.34D+00
 IDIUse=3 WtCom= 8.87D-01 WtEn= 1.13D-01
 Coeff-Com: -0.757D-01 0.108D+01
 Coeff-En:   0.000D+00 0.100D+01
 Coeff:     -0.671D-01 0.107D+01
 Gap=     0.279 Goal=   None    Shift=    0.000
 RMSDP=1.98D-02 MaxDP=2.28D+00 DE=-4.74D-01 OVMax= 1.21D-01

 Cycle   3  Pass 1  IDiag  1:
 RMSU=  1.61D-02    CP:  1.29D+00  8.07D-01
 E= -1947.29575604042     Delta-E=       -0.453981154994 Rises=F Damp=F
 DIIS: error= 6.40D-03 at cycle   3 NSaved=   3.
 NSaved= 3 IEnMin= 3 EnMin= -1947.29575604042     IErMin= 3 ErrMin= 6.40D-03
 ErrMax= 6.40D-03  0.00D+00 EMaxC= 1.00D-01 BMatC= 2.85D-02 BMatP= 1.10D-01
 IDIUse=3 WtCom= 9.36D-01 WtEn= 6.40D-02
 Coeff-Com: -0.793D-01 0.354D+00 0.726D+00
 Coeff-En:   0.000D+00 0.000D+00 0.100D+01
 Coeff:     -0.742D-01 0.331D+00 0.743D+00
 Gap=     0.241 Goal=   None    Shift=    0.000
 RMSDP=6.98D-03 MaxDP=1.06D+00 DE=-4.54D-01 OVMax= 3.86D-02

 Cycle   4  Pass 1  IDiag  1:
 RMSU=  4.94D-03    CP:  1.27D+00  9.64D-01  9.04D-01
 E= -1947.31456800064     Delta-E=       -0.018811960222 Rises=F Damp=F
 DIIS: error= 2.14D-03 at cycle   4 NSaved=   4.
 NSaved= 4 IEnMin= 4 EnMin= -1947.31456800064     IErMin= 4 ErrMin= 2.14D-03
 ErrMax= 2.14D-03  0.00D+00 EMaxC= 1.00D-01 BMatC= 4.75D-03 BMatP= 2.85D-02
 IDIUse=3 WtCom= 9.79D-01 WtEn= 2.14D-02
 Coeff-Com: -0.184D-01 0.563D-01 0.321D+00 0.641D+00
 Coeff-En:   0.000D+00 0.000D+00 0.598D-01 0.940D+00
 Coeff:     -0.180D-01 0.551D-01 0.315D+00 0.648D+00
 Gap=     0.248 Goal=   None    Shift=    0.000
 RMSDP=2.62D-03 MaxDP=3.23D-01 DE=-1.88D-02 OVMax= 9.92D-03

 Cycle   5  Pass 1  IDiag  1:
 RMSU=  1.20D-03    CP:  1.25D+00  9.10D-01  9.46D-01  8.59D-01
 E= -1947.31819544623     Delta-E=       -0.003627445583 Rises=F Damp=F
 DIIS: error= 8.31D-04 at cycle   5 NSaved=   5.
 NSaved= 5 IEnMin= 5 EnMin= -1947.31819544623     IErMin= 5 ErrMin= 8.31D-04
 ErrMax= 8.31D-04  0.00D+00 EMaxC= 1.00D-01 BMatC= 2.45D-04 BMatP= 4.75D-03
 IDIUse=3 WtCom= 9.92D-01 WtEn= 8.31D-03
 Coeff-Com: -0.103D-02-0.883D-03 0.756D-01 0.248D+00 0.678D+00
 Coeff-En:   0.000D+00 0.000D+00 0.000D+00 0.000D+00 0.100D+01
 Coeff:     -0.102D-02-0.875D-03 0.749D-01 0.246D+00 0.681D+00
 Gap=     0.241 Goal=   None    Shift=    0.000
 RMSDP=6.28D-04 MaxDP=8.98D-02 DE=-3.63D-03 OVMax= 3.09D-03

 Cycle   6  Pass 1  IDiag  1:
 RMSU=  2.93D-04    CP:  1.25D+00  9.11D-01  9.59D-01  8.79D-01  8.28D-01
 E= -1947.31841635706     Delta-E=       -0.000220910838 Rises=F Damp=F
 DIIS: error= 1.48D-04 at cycle   6 NSaved=   6.
 NSaved= 6 IEnMin= 6 EnMin= -1947.31841635706     IErMin= 6 ErrMin= 1.48D-04
 ErrMax= 1.48D-04  0.00D+00 EMaxC= 1.00D-01 BMatC= 2.17D-05 BMatP= 2.45D-04
 IDIUse=3 WtCom= 9.99D-01 WtEn= 1.48D-03
 Coeff-Com:  0.182D-02-0.632D-02-0.152D-01-0.136D-01 0.188D+00 0.845D+00
 Coeff-En:   0.000D+00 0.000D+00 0.000D+00 0.000D+00 0.000D+00 0.100D+01
 Coeff:      0.181D-02-0.631D-02-0.152D-01-0.135D-01 0.188D+00 0.845D+00
 Gap=     0.242 Goal=   None    Shift=    0.000
 RMSDP=2.45D-04 MaxDP=2.92D-02 DE=-2.21D-04 OVMax= 1.86D-03

 Cycle   7  Pass 1  IDiag  1:
 RMSU=  1.43D-04    CP:  1.25D+00  9.10D-01  9.61D-01  8.93D-01  8.75D-01
                    CP:  1.06D+00
 E= -1947.31844763174     Delta-E=       -0.000031274673 Rises=F Damp=F
 DIIS: error= 1.00D-04 at cycle   7 NSaved=   7.
 NSaved= 7 IEnMin= 7 EnMin= -1947.31844763174     IErMin= 7 ErrMin= 1.00D-04
 ErrMax= 1.00D-04  0.00D+00 EMaxC= 1.00D-01 BMatC= 4.54D-06 BMatP= 2.17D-05
 IDIUse=3 WtCom= 9.99D-01 WtEn= 1.00D-03
 Coeff-Com:  0.944D-03-0.284D-02-0.168D-01-0.407D-01-0.664D-02 0.343D+00
 Coeff-Com:  0.723D+00
 Coeff-En:   0.000D+00 0.000D+00 0.000D+00 0.000D+00 0.000D+00 0.000D+00
 Coeff-En:   0.100D+01
 Coeff:      0.943D-03-0.284D-02-0.168D-01-0.407D-01-0.663D-02 0.342D+00
 Coeff:      0.724D+00
 Gap=     0.242 Goal=   None    Shift=    0.000
 RMSDP=9.29D-05 MaxDP=1.16D-02 DE=-3.13D-05 OVMax= 6.88D-04

 Cycle   8  Pass 1  IDiag  1:
 RMSU=  4.50D-05    CP:  1.25D+00  9.10D-01  9.63D-01  8.96D-01  8.75D-01
                    CP:  1.22D+00  9.24D-01
 E= -1947.31845409192     Delta-E=       -0.000006460185 Rises=F Damp=F
 DIIS: error= 5.08D-05 at cycle   8 NSaved=   8.
 NSaved= 8 IEnMin= 8 EnMin= -1947.31845409192     IErMin= 8 ErrMin= 5.08D-05
 ErrMax= 5.08D-05  0.00D+00 EMaxC= 1.00D-01 BMatC= 8.19D-07 BMatP= 4.54D-06
 IDIUse=1 WtCom= 1.00D+00 WtEn= 0.00D+00
 Coeff-Com:  0.107D-04 0.843D-04-0.352D-02-0.140D-01-0.367D-01-0.356D-01
 Coeff-Com:  0.285D+00 0.804D+00
 Coeff:      0.107D-04 0.843D-04-0.352D-02-0.140D-01-0.367D-01-0.356D-01
 Coeff:      0.285D+00 0.804D+00
 Gap=     0.242 Goal=   None    Shift=    0.000
 RMSDP=3.84D-05 MaxDP=4.86D-03 DE=-6.46D-06 OVMax= 4.03D-04

 Cycle   9  Pass 1  IDiag  1:
 RMSU=  1.94D-05    CP:  1.24D+00  9.10D-01  9.62D-01  8.93D-01  8.77D-01
                    CP:  1.24D+00  1.11D+00  8.79D-01
 E= -1947.31845560033     Delta-E=       -0.000001508409 Rises=F Damp=F
 DIIS: error= 1.31D-05 at cycle   9 NSaved=   9.
 NSaved= 9 IEnMin= 9 EnMin= -1947.31845560033     IErMin= 9 ErrMin= 1.31D-05
 ErrMax= 1.31D-05  0.00D+00 EMaxC= 1.00D-01 BMatC= 1.19D-07 BMatP= 8.19D-07
 IDIUse=1 WtCom= 1.00D+00 WtEn= 0.00D+00
 Coeff-Com: -0.152D-03 0.533D-03 0.173D-02 0.190D-02-0.104D-01-0.685D-01
 Coeff-Com: -0.259D-01 0.263D+00 0.838D+00
 Coeff:     -0.152D-03 0.533D-03 0.173D-02 0.190D-02-0.104D-01-0.685D-01
 Coeff:     -0.259D-01 0.263D+00 0.838D+00
 Gap=     0.242 Goal=   None    Shift=    0.000
 RMSDP=2.28D-05 MaxDP=4.14D-03 DE=-1.51D-06 OVMax= 2.07D-04

 Cycle  10  Pass 1  IDiag  1:
 RMSU=  6.31D-06    CP:  1.25D+00  9.10D-01  9.62D-01  8.93D-01  8.70D-01
                    CP:  1.25D+00  1.12D+00  1.08D+00  1.04D+00
 E= -1947.31845587259     Delta-E=       -0.000000272264 Rises=F Damp=F
 DIIS: error= 6.64D-06 at cycle  10 NSaved=  10.
 NSaved=10 IEnMin=10 EnMin= -1947.31845587259     IErMin=10 ErrMin= 6.64D-06
 ErrMax= 6.64D-06  0.00D+00 EMaxC= 1.00D-01 BMatC= 2.34D-08 BMatP= 1.19D-07
 IDIUse=1 WtCom= 1.00D+00 WtEn= 0.00D+00
 Coeff-Com: -0.478D-04 0.155D-03 0.136D-02 0.344D-02 0.355D-02-0.185D-01
 Coeff-Com: -0.654D-01-0.557D-01 0.318D+00 0.813D+00
 Coeff:     -0.478D-04 0.155D-03 0.136D-02 0.344D-02 0.355D-02-0.185D-01
 Coeff:     -0.654D-01-0.557D-01 0.318D+00 0.813D+00
 Gap=     0.242 Goal=   None    Shift=    0.000
 RMSDP=6.80D-06 MaxDP=1.45D-03 DE=-2.72D-07 OVMax= 1.15D-04

 Cycle  11  Pass 1  IDiag  1:
 RMSU=  3.87D-06    CP:  1.25D+00  9.10D-01  9.62D-01  8.92D-01  8.71D-01
                    CP:  1.25D+00  1.13D+00  1.13D+00  1.17D+00  9.44D-01
 E= -1947.31845592754     Delta-E=       -0.000000054941 Rises=F Damp=F
 DIIS: error= 2.31D-06 at cycle  11 NSaved=  11.
 NSaved=11 IEnMin=11 EnMin= -1947.31845592754     IErMin=11 ErrMin= 2.31D-06
 ErrMax= 2.31D-06  0.00D+00 EMaxC= 1.00D-01 BMatC= 3.09D-09 BMatP= 2.34D-08
 IDIUse=1 WtCom= 1.00D+00 WtEn= 0.00D+00
 Coeff-Com:  0.671D-05-0.263D-04 0.194D-03 0.750D-03 0.220D-02 0.238D-02
 Coeff-Com: -0.161D-01-0.498D-01-0.223D-01 0.234D+00 0.849D+00
 Coeff:      0.671D-05-0.263D-04 0.194D-03 0.750D-03 0.220D-02 0.238D-02
 Coeff:     -0.161D-01-0.498D-01-0.223D-01 0.234D+00 0.849D+00
 Gap=     0.242 Goal=   None    Shift=    0.000
 RMSDP=2.90D-06 MaxDP=4.00D-04 DE=-5.49D-08 OVMax= 5.00D-05

 Cycle  12  Pass 1  IDiag  1:
 RMSU=  1.30D-06    CP:  1.25D+00  9.10D-01  9.62D-01  8.92D-01  8.70D-01
                    CP:  1.25D+00  1.13D+00  1.16D+00  1.20D+00  1.09D+00
                    CP:  1.22D+00
 E= -1947.31845593739     Delta-E=       -0.000000009856 Rises=F Damp=F
 DIIS: error= 1.18D-06 at cycle  12 NSaved=  12.
 NSaved=12 IEnMin=12 EnMin= -1947.31845593739     IErMin=12 ErrMin= 1.18D-06
 ErrMax= 1.18D-06  0.00D+00 EMaxC= 1.00D-01 BMatC= 6.61D-10 BMatP= 3.09D-09
 IDIUse=1 WtCom= 1.00D+00 WtEn= 0.00D+00
 Coeff-Com:  0.139D-04-0.423D-04-0.236D-03-0.536D-03 0.795D-06 0.504D-02
 Coeff-Com:  0.106D-01-0.201D-02-0.817D-01-0.110D+00 0.273D+00 0.906D+00
 Coeff:      0.139D-04-0.423D-04-0.236D-03-0.536D-03 0.795D-06 0.504D-02
 Coeff:      0.106D-01-0.201D-02-0.817D-01-0.110D+00 0.273D+00 0.906D+00
 Gap=     0.242 Goal=   None    Shift=    0.000
 RMSDP=1.44D-06 MaxDP=2.49D-04 DE=-9.86D-09 OVMax= 2.65D-05

 Cycle  13  Pass 1  IDiag  1:
 RMSU=  4.90D-07    CP:  1.25D+00  9.10D-01  9.62D-01  8.92D-01  8.70D-01
                    CP:  1.25D+00  1.12D+00  1.17D+00  1.20D+00  1.14D+00
                    CP:  1.44D+00  1.18D+00
 E= -1947.31845593937     Delta-E=       -0.000000001977 Rises=F Damp=F
 DIIS: error= 3.74D-07 at cycle  13 NSaved=  13.
 NSaved=13 IEnMin=13 EnMin= -1947.31845593937     IErMin=13 ErrMin= 3.74D-07
 ErrMax= 3.74D-07  0.00D+00 EMaxC= 1.00D-01 BMatC= 1.08D-10 BMatP= 6.61D-10
 IDIUse=1 WtCom= 1.00D+00 WtEn= 0.00D+00
 Coeff-Com:  0.326D-05-0.972D-05-0.992D-04-0.267D-03-0.299D-03 0.107D-02
 Coeff-Com:  0.566D-02 0.605D-02-0.264D-01-0.654D-01-0.146D-01 0.295D+00
 Coeff-Com:  0.800D+00
 Coeff:      0.326D-05-0.972D-05-0.992D-04-0.267D-03-0.299D-03 0.107D-02
 Coeff:      0.566D-02 0.605D-02-0.264D-01-0.654D-01-0.146D-01 0.295D+00
 Coeff:      0.800D+00
 Gap=     0.242 Goal=   None    Shift=    0.000
 RMSDP=4.93D-07 MaxDP=7.14D-05 DE=-1.98D-09 OVMax= 1.11D-05

 Cycle  14  Pass 1  IDiag  1:
 RMSU=  2.18D-07    CP:  1.25D+00  9.10D-01  9.62D-01  8.92D-01  8.70D-01
                    CP:  1.25D+00  1.12D+00  1.17D+00  1.20D+00  1.15D+00
                    CP:  1.48D+00  1.38D+00  1.16D+00
 E= -1947.31845593957     Delta-E=       -0.000000000196 Rises=F Damp=F
 DIIS: error= 2.31D-07 at cycle  14 NSaved=  14.
 NSaved=14 IEnMin=14 EnMin= -1947.31845593957     IErMin=14 ErrMin= 2.31D-07
 ErrMax= 2.31D-07  0.00D+00 EMaxC= 1.00D-01 BMatC= 2.35D-11 BMatP= 1.08D-10
 IDIUse=1 WtCom= 1.00D+00 WtEn= 0.00D+00
 Coeff-Com: -0.221D-05 0.632D-05 0.222D-04 0.365D-04-0.103D-03-0.944D-03
 Coeff-Com: -0.360D-03 0.321D-02 0.104D-01 0.439D-02-0.776D-01-0.134D+00
 Coeff-Com:  0.286D+00 0.908D+00
 Coeff:     -0.221D-05 0.632D-05 0.222D-04 0.365D-04-0.103D-03-0.944D-03
 Coeff:     -0.360D-03 0.321D-02 0.104D-01 0.439D-02-0.776D-01-0.134D+00
 Coeff:      0.286D+00 0.908D+00
 Gap=     0.242 Goal=   None    Shift=    0.000
 RMSDP=2.42D-07 MaxDP=2.69D-05 DE=-1.96D-10 OVMax= 6.18D-06

 Cycle  15  Pass 1  IDiag  1:
 RMSU=  9.20D-08    CP:  1.25D+00  9.10D-01  9.62D-01  8.92D-01  8.70D-01
                    CP:  1.25D+00  1.13D+00  1.17D+00  1.20D+00  1.15D+00
                    CP:  1.50D+00  1.42D+00  1.48D+00  9.53D-01
 E= -1947.31845594004     Delta-E=       -0.000000000479 Rises=F Damp=F
 DIIS: error= 6.31D-08 at cycle  15 NSaved=  15.
 NSaved=15 IEnMin=15 EnMin= -1947.31845594004     IErMin=15 ErrMin= 6.31D-08
 ErrMax= 6.31D-08  0.00D+00 EMaxC= 1.00D-01 BMatC= 2.66D-12 BMatP= 2.35D-11
 IDIUse=1 WtCom= 1.00D+00 WtEn= 0.00D+00
 Coeff-Com: -0.915D-06 0.279D-05 0.161D-04 0.366D-04-0.406D-06-0.398D-03
 Coeff-Com: -0.650D-03 0.273D-03 0.521D-02 0.843D-02-0.194D-01-0.652D-01
 Coeff-Com: -0.146D-01 0.264D+00 0.822D+00
 Coeff:     -0.915D-06 0.279D-05 0.161D-04 0.366D-04-0.406D-06-0.398D-03
 Coeff:     -0.650D-03 0.273D-03 0.521D-02 0.843D-02-0.194D-01-0.652D-01
 Coeff:     -0.146D-01 0.264D+00 0.822D+00
 Gap=     0.242 Goal=   None    Shift=    0.000
 RMSDP=1.26D-07 MaxDP=2.49D-05 DE=-4.79D-10 OVMax= 1.56D-06

 Cycle  16  Pass 1  IDiag  1:
 RMSU=  5.61D-08    CP:  1.25D+00  9.10D-01  9.62D-01  8.92D-01  8.70D-01
                    CP:  1.25D+00  1.13D+00  1.17D+00  1.20D+00  1.15D+00
                    CP:  1.50D+00  1.43D+00  1.50D+00  1.14D+00  1.24D+00
 E= -1947.31845593983     Delta-E=        0.000000000217 Rises=F Damp=F
 DIIS: error= 2.47D-08 at cycle  16 NSaved=  16.
 NSaved=16 IEnMin=15 EnMin= -1947.31845594004     IErMin=16 ErrMin= 2.47D-08
 ErrMax= 2.47D-08  0.00D+00 EMaxC= 1.00D-01 BMatC= 6.73D-13 BMatP= 2.66D-12
 IDIUse=1 WtCom= 1.00D+00 WtEn= 0.00D+00
 Coeff-Com:  0.102D-06-0.124D-06 0.230D-05 0.755D-05 0.202D-04 0.202D-04
 Coeff-Com: -0.176D-03-0.535D-03-0.572D-04 0.276D-02 0.790D-02 0.982D-03
 Coeff-Com: -0.683D-01-0.703D-01 0.342D+00 0.785D+00
 Coeff:      0.102D-06-0.124D-06 0.230D-05 0.755D-05 0.202D-04 0.202D-04
 Coeff:     -0.176D-03-0.535D-03-0.572D-04 0.276D-02 0.790D-02 0.982D-03
 Coeff:     -0.683D-01-0.703D-01 0.342D+00 0.785D+00
 Gap=     0.242 Goal=   None    Shift=    0.000
 RMSDP=7.05D-08 MaxDP=7.50D-06 DE= 2.17D-10 OVMax= 5.91D-07

 Cycle  17  Pass 1  IDiag  1:
 RMSU=  4.68D-08    CP:  1.25D+00  9.10D-01  9.62D-01  8.92D-01  8.70D-01
                    CP:  1.25D+00  1.13D+00  1.17D+00  1.20D+00  1.15D+00
                    CP:  1.50D+00  1.43D+00  1.54D+00  1.13D+00  1.43D+00
                    CP:  1.15D+00
 E= -1947.31845594012     Delta-E=       -0.000000000295 Rises=F Damp=F
 DIIS: error= 1.07D-08 at cycle  17 NSaved=  17.
 NSaved=17 IEnMin=17 EnMin= -1947.31845594012     IErMin=17 ErrMin= 1.07D-08
 ErrMax= 1.07D-08  0.00D+00 EMaxC= 1.00D-01 BMatC= 8.76D-14 BMatP= 6.73D-13
 IDIUse=1 WtCom= 1.00D+00 WtEn= 0.00D+00
 Coeff-Com:  0.214D-06-0.566D-06-0.178D-05-0.325D-05 0.689D-05 0.690D-04
 Coeff-Com:  0.551D-04-0.220D-03-0.883D-03-0.410D-03 0.570D-02 0.106D-01
 Coeff-Com: -0.221D-01-0.626D-01-0.697D-02 0.260D+00 0.816D+00
 Coeff:      0.214D-06-0.566D-06-0.178D-05-0.325D-05 0.689D-05 0.690D-04
 Coeff:      0.551D-04-0.220D-03-0.883D-03-0.410D-03 0.570D-02 0.106D-01
 Coeff:     -0.221D-01-0.626D-01-0.697D-02 0.260D+00 0.816D+00
 Gap=     0.242 Goal=   None    Shift=    0.000
 RMSDP=6.37D-08 MaxDP=4.88D-06 DE=-2.95D-10 OVMax= 2.61D-07

 Cycle  18  Pass 1  IDiag  1:
 RMSU=  4.91D-08    CP:  1.25D+00  9.10D-01  9.62D-01  8.92D-01  8.70D-01
                    CP:  1.25D+00  1.13D+00  1.17D+00  1.20D+00  1.15D+00
                    CP:  1.50D+00  1.43D+00  1.56D+00  1.22D+00  1.49D+00
                    CP:  1.55D+00  1.41D+00
 E= -1947.31845593923     Delta-E=        0.000000000894 Rises=F Damp=F
 DIIS: error= 4.64D-09 at cycle  18 NSaved=  18.
 NSaved=18 IEnMin=17 EnMin= -1947.31845594012     IErMin=18 ErrMin= 4.64D-09
 ErrMax= 4.64D-09  0.00D+00 EMaxC= 1.00D-01 BMatC= 2.35D-14 BMatP= 8.76D-14
 IDIUse=1 WtCom= 1.00D+00 WtEn= 0.00D+00
 Coeff-Com:  0.857D-07-0.252D-06-0.118D-05-0.267D-05-0.359D-06 0.265D-04
 Coeff-Com:  0.567D-04-0.722D-05-0.402D-03-0.663D-03 0.127D-02 0.479D-02
 Coeff-Com:  0.111D-02-0.170D-01-0.608D-01-0.228D-01 0.361D+00 0.734D+00
 Coeff:      0.857D-07-0.252D-06-0.118D-05-0.267D-05-0.359D-06 0.265D-04
 Coeff:      0.567D-04-0.722D-05-0.402D-03-0.663D-03 0.127D-02 0.479D-02
 Coeff:      0.111D-02-0.170D-01-0.608D-01-0.228D-01 0.361D+00 0.734D+00
 Gap=     0.242 Goal=   None    Shift=    0.000
 RMSDP=7.91D-08 MaxDP=5.44D-06 DE= 8.94D-10 OVMax= 1.04D-07

 Cycle  19  Pass 1  IDiag  1:
 RMSU=  4.74D-08    CP:  1.25D+00  9.10D-01  9.62D-01  8.92D-01  8.70D-01
                    CP:  1.25D+00  1.13D+00  1.17D+00  1.20D+00  1.15D+00
                    CP:  1.50D+00  1.42D+00  1.57D+00  1.24D+00  1.53D+00
                    CP:  1.85D+00  2.35D+00  1.43D+00
 E= -1947.31845594014     Delta-E=       -0.000000000915 Rises=F Damp=F
 DIIS: error= 4.62D-09 at cycle  19 NSaved=  19.
 NSaved=19 IEnMin=19 EnMin= -1947.31845594014     IErMin=19 ErrMin= 4.62D-09
 ErrMax= 4.62D-09  0.00D+00 EMaxC= 1.00D-01 BMatC= 6.90D-15 BMatP= 2.35D-14
 IDIUse=1 WtCom= 1.00D+00 WtEn= 0.00D+00
 Large coefficients: NSaved= 19 BigCof=    0.00 CofMax=   10.00 Det=-7.53D-15
 Inversion failed.  Reducing to 18 matrices.
 Coeff-Com: -0.566D-08-0.145D-06-0.459D-06-0.972D-06 0.430D-07 0.143D-04
 Coeff-Com:  0.277D-04-0.321D-04-0.188D-03-0.288D-03 0.524D-03 0.322D-02
 Coeff-Com:  0.146D-02-0.226D-01-0.433D-01 0.505D-01 0.304D+00 0.706D+00
 Coeff:     -0.566D-08-0.145D-06-0.459D-06-0.972D-06 0.430D-07 0.143D-04
 Coeff:      0.277D-04-0.321D-04-0.188D-03-0.288D-03 0.524D-03 0.322D-02
 Coeff:      0.146D-02-0.226D-01-0.433D-01 0.505D-01 0.304D+00 0.706D+00
 Gap=     0.242 Goal=   None    Shift=    0.000
 RMSDP=8.62D-08 MaxDP=6.11D-06 DE=-9.15D-10 OVMax= 2.85D-08

 Cycle  20  Pass 1  IDiag  1:
 RMSU=  3.83D-08    CP:  1.25D+00  9.10D-01  9.62D-01  8.92D-01  8.70D-01
                    CP:  1.25D+00  1.13D+00  1.17D+00  1.20D+00  1.15D+00
                    CP:  1.50D+00  1.41D+00  1.61D+00  1.28D+00  1.56D+00
                    CP:  2.19D+00  3.00D+00  2.42D+00  1.62D+00
 E= -1947.31845593948     Delta-E=        0.000000000661 Rises=F Damp=F
 DIIS: error= 4.99D-09 at cycle  20 NSaved=  19.
 NSaved=19 IEnMin=18 EnMin= -1947.31845594014     IErMin=18 ErrMin= 4.62D-09
 ErrMax= 4.99D-09  0.00D+00 EMaxC= 1.00D-01 BMatC= 9.67D-15 BMatP= 6.90D-15
 IDIUse=1 WtCom= 1.00D+00 WtEn= 0.00D+00
 Large coefficients: NSaved= 19 BigCof=    0.00 CofMax=   10.00 Det=-2.79D-15
 Inversion failed.  Reducing to 18 matrices.
 Large coefficients: NSaved= 18 BigCof=    0.00 CofMax=   10.00 Det=-2.79D-15
 Inversion failed.  Reducing to 17 matrices.
 Large coefficients: NSaved= 17 BigCof=    0.00 CofMax=   10.00 Det=-2.81D-15
 Inversion failed.  Reducing to 16 matrices.
 Large coefficients: NSaved= 16 BigCof=    0.00 CofMax=   10.00 Det=-2.84D-15
 Inversion failed.  Reducing to 15 matrices.
 Coeff-Com: -0.404D-06 0.705D-05 0.163D-04-0.128D-04-0.123D-03-0.260D-03
 Coeff-Com:  0.383D-03 0.299D-02 0.147D-02-0.227D-01-0.459D-01 0.482D-01
 Coeff-Com:  0.333D+00 0.865D+00-0.182D+00
 Coeff:     -0.404D-06 0.705D-05 0.163D-04-0.128D-04-0.123D-03-0.260D-03
 Coeff:      0.383D-03 0.299D-02 0.147D-02-0.227D-01-0.459D-01 0.482D-01
 Coeff:      0.333D+00 0.865D+00-0.182D+00
 Gap=     0.242 Goal=   None    Shift=    0.000
 RMSDP=2.93D-08 MaxDP=3.00D-06 DE= 6.61D-10 OVMax= 3.26D-09

 Cycle  21  Pass 1  IDiag  1:
 Restarting incremental Fock formation.
 E= -1947.31845593906     Delta-E=        0.000000000427 Rises=F Damp=F
 DIIS: error= 4.07D-08 at cycle  21 NSaved=  16.
 NSaved=16 IEnMin=14 EnMin= -1947.31845594014     IErMin=14 ErrMin= 4.62D-09
 ErrMax= 4.07D-08  0.00D+00 EMaxC= 1.00D-01 BMatC= 6.36D-13 BMatP= 6.90D-15
 IDIUse=1 WtCom= 1.00D+00 WtEn= 0.00D+00
 Large coefficients: NSaved= 16 BigCof=    0.00 CofMax=   10.00 Det=-2.83D-15
 Inversion failed.  Reducing to 15 matrices.
 Coeff-Com:  0.712D-05 0.147D-04-0.168D-04-0.123D-03-0.233D-03 0.418D-03
 Coeff-Com:  0.287D-02 0.123D-02-0.223D-01-0.448D-01 0.480D-01 0.327D+00
 Coeff-Com:  0.848D+00-0.172D+00 0.115D-01
 Coeff:      0.712D-05 0.147D-04-0.168D-04-0.123D-03-0.233D-03 0.418D-03
 Coeff:      0.287D-02 0.123D-02-0.223D-01-0.448D-01 0.480D-01 0.327D+00
 Coeff:      0.848D+00-0.172D+00 0.115D-01
 Gap=     0.242 Goal=   None    Shift=    0.000
 RMSDP=4.83D-08 MaxDP=5.00D-06 DE= 4.27D-10 OVMax= 2.26D-09

 Cycle  22  Pass 1  IDiag  1:
 RMSU=  4.70D-08    CP:  1.00D+00
 E= -1947.31845593882     Delta-E=        0.000000000236 Rises=F Damp=F
 DIIS: error= 4.07D-08 at cycle  22 NSaved=  16.
 NSaved=16 IEnMin=13 EnMin= -1947.31845594014     IErMin=13 ErrMin= 4.62D-09
 ErrMax= 4.07D-08  0.00D+00 EMaxC= 1.00D-01 BMatC= 6.24D-13 BMatP= 6.90D-15
 IDIUse=1 WtCom= 1.00D+00 WtEn= 0.00D+00
 Large coefficients: NSaved= 16 BigCof=    0.00 CofMax=   10.00 Det=-7.48D-16
 Inversion failed.  Reducing to 15 matrices.
 Coeff-Com:  0.535D-05 0.696D-05-0.482D-04-0.199D-03 0.178D-03 0.227D-02
 Coeff-Com:  0.112D-02-0.192D-01-0.413D-01 0.401D-01 0.310D+00 0.847D+00
 Coeff-Com: -0.150D+00 0.113D+00-0.103D+00
 Coeff:      0.535D-05 0.696D-05-0.482D-04-0.199D-03 0.178D-03 0.227D-02
 Coeff:      0.112D-02-0.192D-01-0.413D-01 0.401D-01 0.310D+00 0.847D+00
 Coeff:     -0.150D+00 0.113D+00-0.103D+00
 Gap=     0.242 Goal=   None    Shift=    0.000
 RMSDP=9.30D-09 MaxDP=9.75D-07 DE= 2.36D-10 OVMax= 2.87D-09

 SCF Done:  E(RM11) =  -1947.31845594     A.U. after   22 cycles
            NFock= 22  Conv=0.93D-08     -V/T= 1.9981
 KE= 1.951032721630D+03 PE=-1.212680250557D+04 EE= 4.451567013387D+03
 Leave Link  502 at Tue Jan 19 14:46:24 2021, MaxMem=  5368709120 cpu:     11378.2
 (Enter /usr/local/bin/G09/G09d//g09/l801.exe)
 DoSCS=F DFT=T ScalE2(SS,OS)=  1.000000  1.000000
 Range of M.O.s used for correlation:     1   827
 NBasis=   837 NAE=   128 NBE=   128 NFC=     0 NFV=     0
 NROrb=    827 NOA=   128 NOB=   128 NVA=   699 NVB=   699

 **** Warning!!: The largest alpha MO coefficient is  0.15947120D+03

 Leave Link  801 at Tue Jan 19 14:46:25 2021, MaxMem=  5368709120 cpu:         0.5
 (Enter /usr/local/bin/G09/G09d//g09/l1002.exe)
 Minotr:  Closed shell wavefunction.
          Direct CPHF calculation.
          Differentiating once with respect to electric field.
                with respect to dipole field.
          Electric field/nuclear overlap derivatives assumed to be zero.
          Requested convergence is 1.0D-08 RMS, and 1.0D-07 maximum.
          NewPWx=F KeepS1=T KeepF1=T KeepIn=T MapXYZ=F SortEE=F KeepMc=T.
          MDV=    5368707801 using IRadAn=       1.
 Generate precomputed XC quadrature information.
          Solving linear equations separately, MaxMat=      72.
          Doing perturbations at frequencies    0.000000    0.072000    0.144000
          There are     9 degrees of freedom in the 1st order CPHF.  IDoFFX=0 NUNeed=     9.
 LinEq1:  Iter=  0 NonCon=     9 RMS=6.14D-02 Max=1.41D+01 NDo=     9
 AX will form     9 AO Fock derivatives at one time.
 FoFJK:  IHMeth= 1 ICntrl=       0 DoSepK=T KAlg= 0 I1Cent=   0 FoldK=F
 IRaf=         1 NMat=  18 IRICut=       1 DoRegI=T DoRafI=F ISym2E= 0.
 FoFCou: FMM=T IPFlag=           0 FMFlag=      100000 FMFlg1=        2001
         NFxFlg=           0 DoJE=F BraDBF=F KetDBF=F FulRan=T
         wScrn=  0.000000 ICntrl=     500 IOpCl=  0 I1Cent=           0 NGrid=           0
         NMat0=    9 NMatS0=      9 NMatT0=    0 NMatD0=    9 NMtDS0=    0 NMtDT0=    0
 Symmetry not used in FoFCou.
 FMM levels:  10  Number of levels for PrismC:   9
 LinEq1:  Iter=  1 NonCon=     9 RMS=3.71D-02 Max=8.16D+00 NDo=     9
 LinEq1:  Iter=  2 NonCon=     9 RMS=2.80D-02 Max=4.08D+00 NDo=     9
 LinEq1:  Iter=  3 NonCon=     9 RMS=1.54D-02 Max=1.40D+00 NDo=     9
 LinEq1:  Iter=  4 NonCon=     9 RMS=1.06D-02 Max=1.21D+00 NDo=     9
 LinEq1:  Iter=  5 NonCon=     9 RMS=6.24D-03 Max=7.69D-01 NDo=     9
 LinEq1:  Iter=  6 NonCon=     9 RMS=3.56D-03 Max=5.29D-01 NDo=     9
 LinEq1:  Iter=  7 NonCon=     9 RMS=2.17D-03 Max=2.98D-01 NDo=     9
 LinEq1:  Iter=  8 NonCon=     9 RMS=1.50D-03 Max=1.91D-01 NDo=     9
 LinEq1:  Iter=  9 NonCon=     9 RMS=7.54D-04 Max=5.93D-02 NDo=     9
 LinEq1:  Iter= 10 NonCon=     9 RMS=4.93D-04 Max=3.31D-02 NDo=     9
 LinEq1:  Iter= 11 NonCon=     9 RMS=2.46D-04 Max=1.86D-02 NDo=     9
 LinEq1:  Iter= 12 NonCon=     9 RMS=1.38D-04 Max=1.55D-02 NDo=     9
 LinEq1:  Iter= 13 NonCon=     9 RMS=8.26D-05 Max=8.63D-03 NDo=     9
 LinEq1:  Iter= 14 NonCon=     9 RMS=4.70D-05 Max=5.74D-03 NDo=     9
 LinEq1:  Iter= 15 NonCon=     9 RMS=3.47D-05 Max=4.37D-03 NDo=     9
 LinEq1:  Iter= 16 NonCon=     9 RMS=1.89D-05 Max=2.78D-03 NDo=     9
 LinEq1:  Iter= 17 NonCon=     9 RMS=1.13D-05 Max=1.59D-03 NDo=     9
 LinEq1:  Iter= 18 NonCon=     9 RMS=5.58D-06 Max=7.84D-04 NDo=     9
 LinEq1:  Iter= 19 NonCon=     9 RMS=2.71D-06 Max=2.63D-04 NDo=     9
 LinEq1:  Iter= 20 NonCon=     9 RMS=1.81D-06 Max=1.98D-04 NDo=     9
 LinEq1:  Iter= 21 NonCon=     9 RMS=9.31D-07 Max=9.54D-05 NDo=     9
 LinEq1:  Iter= 22 NonCon=     8 RMS=5.49D-07 Max=5.18D-05 NDo=     9
 LinEq1:  Iter= 23 NonCon=     7 RMS=3.06D-07 Max=3.42D-05 NDo=     8
 LinEq1:  Iter= 24 NonCon=     6 RMS=1.55D-07 Max=1.29D-05 NDo=     7
 LinEq1:  Iter= 25 NonCon=     6 RMS=9.96D-08 Max=7.38D-06 NDo=     6
 LinEq1:  Iter= 26 NonCon=     3 RMS=4.94D-08 Max=4.69D-06 NDo=     6
 LinEq1:  Iter= 27 NonCon=     3 RMS=2.46D-08 Max=2.90D-06 NDo=     3
 LinEq1:  Iter= 28 NonCon=     3 RMS=1.46D-08 Max=2.09D-06 NDo=     3
 LinEq1:  Iter= 29 NonCon=     3 RMS=8.87D-09 Max=1.21D-06 NDo=     3
 LinEq1:  Iter= 30 NonCon=     3 RMS=5.10D-09 Max=5.89D-07 NDo=     3
 LinEq1:  Iter= 31 NonCon=     3 RMS=3.05D-09 Max=3.65D-07 NDo=     3
 LinEq1:  Iter= 32 NonCon=     3 RMS=1.85D-09 Max=1.78D-07 NDo=     3
 LinEq1:  Iter= 33 NonCon=     0 RMS=1.02D-09 Max=4.43D-08 NDo=     3
 Linear equations converged to 1.000D-08 1.000D-07 after    33 iterations.
 FullF1:  Do perturbations    1 to     9.
 SCF Polarizability for W=    0.000000:
                1             2             3 
      1  0.380889D+03
      2  0.107311D+03  0.330451D+03
      3 -0.837087D+02 -0.122508D+03  0.362700D+03
 Isotropic polarizability for W=    0.000000      358.01 Bohr**3.
 SCF Polarizability for W=    0.072000:
                1             2             3 
      1  0.422959D+03
      2  0.139605D+03  0.368459D+03
      3 -0.118012D+03 -0.157971D+03  0.408770D+03
 Isotropic polarizability for W=    0.072000      400.06 Bohr**3.
 SCF Polarizability for W=    0.144000:
                1             2             3 
      1  0.253122D+03
      2 -0.546096D+02  0.231830D+03
      3  0.116513D+03  0.327915D+02  0.223891D+03
 Isotropic polarizability for W=    0.144000      236.28 Bohr**3.
 SCF Static Hyperpolarizability:
 K=  1 block:
                1 
      1 -0.199497D+04
 K=  2 block:
                1             2 
      1 -0.188602D+04
      2 -0.171504D+04 -0.158628D+04
 K=  3 block:
                1             2             3 
      1  0.209587D+04
      2  0.194037D+04  0.173478D+04
      3 -0.224328D+04 -0.190081D+04  0.204675D+04
 SCF Beta(-W,W;0) for W=    0.072000:
 K=  1 block:
                1             2             3 
      1 -0.433075D+04
      2 -0.409822D+04 -0.381503D+04
      3  0.461577D+04  0.435356D+04 -0.502081D+04
 K=  2 block:
                1             2             3 
      1 -0.416736D+04
      2 -0.380019D+04 -0.352390D+04
      3  0.426785D+04  0.390968D+04 -0.434043D+04
 K=  3 block:
                1             2             3 
      1  0.471071D+04
      2  0.428529D+04  0.385995D+04
      3 -0.487337D+04 -0.429253D+04  0.474493D+04
 SCF Beta(W,W;-2W) for W=    0.072000:
 K=  1 block:
                1             2             3 
      1  0.976676D+04
      2  0.100257D+05  0.953709D+04
      3 -0.119176D+05 -0.105959D+05  0.116857D+05
 K=  2 block:
                1             2             3 
      1  0.979710D+04
      2  0.970174D+04  0.881094D+04
      3 -0.111488D+05 -0.971487D+04  0.107756D+05
 K=  3 block:
                1             2             3 
      1 -0.116182D+05
      2 -0.111803D+05 -0.100473D+05
      3  0.125070D+05  0.109467D+05 -0.120875D+05
 SCF Beta(-W,W;0) for W=    0.144000:
 K=  1 block:
                1             2             3 
      1 -0.171819D+05
      2 -0.125843D+05 -0.125068D+05
      3  0.120443D+05  0.149629D+05 -0.197128D+05
 K=  2 block:
                1             2             3 
      1 -0.149773D+05
      2 -0.128798D+05 -0.141758D+05
      3  0.143371D+05  0.176027D+05 -0.225992D+05
 K=  3 block:
                1             2             3 
      1  0.156152D+05
      2  0.151908D+05  0.172632D+05
      3 -0.177288D+05 -0.212473D+05  0.264738D+05
 End of Minotr F.D. properties on file   721 Mask=      31 NFrqRd=     2 NDeriv=     1 ND12= 1 LenFil=      94:
 Frequencies=    0.000000    0.072000
 Property number 1 -- Alpha(-w,w) frequency  1    0.000000:
                 1             2             3 
      1   0.380889D+03  0.107311D+03 -0.837087D+02
      2   0.107311D+03  0.330451D+03 -0.122508D+03
      3  -0.837087D+02 -0.122508D+03  0.362700D+03
 Property number 1 -- Alpha(-w,w) frequency  2    0.072000:
                 1             2             3 
      1   0.422959D+03  0.139605D+03 -0.118012D+03
      2   0.139605D+03  0.368459D+03 -0.157971D+03
      3  -0.118012D+03 -0.157971D+03  0.408770D+03
 Property number 5 -- Beta(-w,w,0) frequency  1    0.000000:
                 1 
      1  -0.199497D+04
      2  -0.188602D+04
      3  -0.171504D+04
      4   0.209587D+04
      5   0.194037D+04
      6  -0.224328D+04
      7  -0.188602D+04
      8  -0.171504D+04
      9  -0.158628D+04
     10   0.194037D+04
     11   0.173478D+04
     12  -0.190081D+04
     13   0.209587D+04
     14   0.194037D+04
     15   0.173478D+04
     16  -0.224328D+04
     17  -0.190081D+04
     18   0.204675D+04
 Property number 5 -- Beta(-w,w,0) frequency  2    0.072000:
                 1 
      1  -0.433075D+04
      2  -0.409822D+04
      3  -0.381503D+04
      4   0.461577D+04
      5   0.435356D+04
      6  -0.502081D+04
      7  -0.416736D+04
      8  -0.380019D+04
      9  -0.352390D+04
     10   0.426785D+04
     11   0.390968D+04
     12  -0.434043D+04
     13   0.471071D+04
     14   0.428529D+04
     15   0.385995D+04
     16  -0.487337D+04
     17  -0.429253D+04
     18   0.474493D+04
 Property number 6 -- Beta(w,w,-2w) frequency  1    0.000000:
                 1 
      1  -0.199497D+04
      2  -0.188602D+04
      3  -0.171504D+04
      4   0.209587D+04
      5   0.194037D+04
      6  -0.224328D+04
      7  -0.188602D+04
      8  -0.171504D+04
      9  -0.158628D+04
     10   0.194037D+04
     11   0.173478D+04
     12  -0.190081D+04
     13   0.209587D+04
     14   0.194037D+04
     15   0.173478D+04
     16  -0.224328D+04
     17  -0.190081D+04
     18   0.204675D+04
 Property number 6 -- Beta(w,w,-2w) frequency  2    0.072000:
                 1 
      1   0.976676D+04
      2   0.100257D+05
      3   0.953709D+04
      4  -0.119176D+05
      5  -0.105959D+05
      6   0.116857D+05
      7   0.979710D+04
      8   0.970174D+04
      9   0.881094D+04
     10  -0.111488D+05
     11  -0.971487D+04
     12   0.107756D+05
     13  -0.116182D+05
     14  -0.111803D+05
     15  -0.100473D+05
     16   0.125070D+05
     17   0.109467D+05
     18  -0.120875D+05
 End of Minotr F.D. properties file   722 does not exist.
 End of Minotr F.D. properties file   788 does not exist.
 Leave Link 1002 at Tue Jan 19 18:00:10 2021, MaxMem=  5368709120 cpu:     92809.5
 (Enter /usr/local/bin/G09/G09d//g09/l601.exe)
 Copying SCF densities to generalized density rwf, IOpCl= 0 IROHF=0.

 **********************************************************************

            Population analysis using the SCF density.

 **********************************************************************

 Alpha  occ. eigenvalues --  -89.52575 -19.47636 -19.46524 -19.45497 -19.43742
 Alpha  occ. eigenvalues --  -19.33855 -19.33831 -19.32846 -14.73908 -10.55064
 Alpha  occ. eigenvalues --  -10.52459 -10.48801 -10.48638 -10.48351 -10.47429
 Alpha  occ. eigenvalues --  -10.47424 -10.45345 -10.44197 -10.43558 -10.43497
 Alpha  occ. eigenvalues --  -10.41896 -10.41824 -10.41626 -10.41280 -10.41174
 Alpha  occ. eigenvalues --  -10.40458 -10.40316 -10.39741 -10.39740 -10.39523
 Alpha  occ. eigenvalues --  -10.39421 -10.39184 -10.39142 -10.38926  -8.20057
 Alpha  occ. eigenvalues --   -6.19629  -6.19596  -6.19554  -1.30166  -1.25862
 Alpha  occ. eigenvalues --   -1.21578  -1.21514  -1.21074  -1.19083  -1.05128
 Alpha  occ. eigenvalues --   -1.04596  -1.04444  -1.02951  -1.01643  -1.00975
 Alpha  occ. eigenvalues --   -0.96421  -0.95952  -0.93286  -0.91583  -0.90771
 Alpha  occ. eigenvalues --   -0.90226  -0.87899  -0.87285  -0.86287  -0.85599
 Alpha  occ. eigenvalues --   -0.82632  -0.81463  -0.78926  -0.78003  -0.76934
 Alpha  occ. eigenvalues --   -0.76837  -0.74895  -0.74291  -0.74154  -0.72914
 Alpha  occ. eigenvalues --   -0.70862  -0.68803  -0.68119  -0.68031  -0.65990
 Alpha  occ. eigenvalues --   -0.65906  -0.65717  -0.64772  -0.64321  -0.63270
 Alpha  occ. eigenvalues --   -0.61840  -0.60540  -0.59682  -0.59322  -0.58631
 Alpha  occ. eigenvalues --   -0.58358  -0.57887  -0.57614  -0.57390  -0.56725
 Alpha  occ. eigenvalues --   -0.56626  -0.55781  -0.55205  -0.54700  -0.54563
 Alpha  occ. eigenvalues --   -0.54180  -0.53596  -0.53113  -0.52142  -0.52015
 Alpha  occ. eigenvalues --   -0.51720  -0.51076  -0.50974  -0.50417  -0.49543
 Alpha  occ. eigenvalues --   -0.49110  -0.48711  -0.48253  -0.46496  -0.45983
 Alpha  occ. eigenvalues --   -0.45793  -0.44622  -0.44584  -0.44025  -0.43380
 Alpha  occ. eigenvalues --   -0.43028  -0.40000  -0.39459  -0.38587  -0.38023
 Alpha  occ. eigenvalues --   -0.35856  -0.35403  -0.34518  -0.33915  -0.31705
 Alpha  occ. eigenvalues --   -0.30207  -0.29373  -0.29269
 Alpha virt. eigenvalues --   -0.05084  -0.02394  -0.02200  -0.01108  -0.00213
 Alpha virt. eigenvalues --    0.01249   0.01368   0.02122   0.02369   0.02911
 Alpha virt. eigenvalues --    0.03162   0.03397   0.03600   0.03801   0.04229
 Alpha virt. eigenvalues --    0.04864   0.05229   0.05452   0.05753   0.05937
 Alpha virt. eigenvalues --    0.06338   0.06419   0.06789   0.06998   0.07263
 Alpha virt. eigenvalues --    0.08041   0.08104   0.08553   0.08912   0.09009
 Alpha virt. eigenvalues --    0.09188   0.09349   0.09441   0.09944   0.10395
 Alpha virt. eigenvalues --    0.10520   0.10817   0.11201   0.11474   0.11670
 Alpha virt. eigenvalues --    0.12102   0.12647   0.12863   0.13041   0.13422
 Alpha virt. eigenvalues --    0.13582   0.14045   0.14405   0.14475   0.14755
 Alpha virt. eigenvalues --    0.15003   0.15405   0.15579   0.15803   0.16333
 Alpha virt. eigenvalues --    0.16579   0.16822   0.17479   0.17780   0.17952
 Alpha virt. eigenvalues --    0.18099   0.18336   0.18479   0.19058   0.19289
 Alpha virt. eigenvalues --    0.19720   0.19861   0.20142   0.20335   0.20723
 Alpha virt. eigenvalues --    0.20833   0.21324   0.21517   0.21608   0.21740
 Alpha virt. eigenvalues --    0.21814   0.22105   0.22330   0.22749   0.23002
 Alpha virt. eigenvalues --    0.23024   0.23194   0.23483   0.23665   0.24004
 Alpha virt. eigenvalues --    0.24188   0.24327   0.24592   0.24778   0.24806
 Alpha virt. eigenvalues --    0.25534   0.25797   0.25845   0.25973   0.26298
 Alpha virt. eigenvalues --    0.26626   0.26700   0.26752   0.27073   0.27593
 Alpha virt. eigenvalues --    0.27676   0.27938   0.27981   0.28287   0.28436
 Alpha virt. eigenvalues --    0.28710   0.28754   0.29235   0.29273   0.29663
 Alpha virt. eigenvalues --    0.29847   0.30137   0.30176   0.30510   0.30722
 Alpha virt. eigenvalues --    0.30929   0.31089   0.31329   0.31576   0.31827
 Alpha virt. eigenvalues --    0.31990   0.32333   0.32648   0.32713   0.32985
 Alpha virt. eigenvalues --    0.33272   0.33561   0.33718   0.34073   0.34196
 Alpha virt. eigenvalues --    0.34607   0.34714   0.35151   0.35239   0.36011
 Alpha virt. eigenvalues --    0.36268   0.36521   0.36694   0.36927   0.37203
 Alpha virt. eigenvalues --    0.37615   0.37811   0.37857   0.38124   0.38562
 Alpha virt. eigenvalues --    0.38708   0.39172   0.39288   0.39508   0.39854
 Alpha virt. eigenvalues --    0.40115   0.40287   0.40724   0.41195   0.41349
 Alpha virt. eigenvalues --    0.41906   0.42012   0.42124   0.42476   0.42900
 Alpha virt. eigenvalues --    0.42960   0.43116   0.43579   0.43919   0.44186
 Alpha virt. eigenvalues --    0.44912   0.45022   0.45462   0.45669   0.46139
 Alpha virt. eigenvalues --    0.46490   0.46718   0.47217   0.47645   0.47875
 Alpha virt. eigenvalues --    0.48429   0.48905   0.49234   0.50033   0.50197
 Alpha virt. eigenvalues --    0.50697   0.51639   0.51765   0.52177   0.52729
 Alpha virt. eigenvalues --    0.52996   0.53909   0.54305   0.54854   0.55062
 Alpha virt. eigenvalues --    0.55956   0.56620   0.57573   0.58248   0.58786
 Alpha virt. eigenvalues --    0.59069   0.59570   0.60138   0.60371   0.60391
 Alpha virt. eigenvalues --    0.60488   0.61067   0.61656   0.61944   0.62083
 Alpha virt. eigenvalues --    0.62543   0.62987   0.63315   0.63939   0.64613
 Alpha virt. eigenvalues --    0.64690   0.65077   0.65217   0.65832   0.66308
 Alpha virt. eigenvalues --    0.66628   0.67064   0.67447   0.68034   0.68868
 Alpha virt. eigenvalues --    0.69009   0.69551   0.69717   0.70086   0.70466
 Alpha virt. eigenvalues --    0.70855   0.71216   0.71488   0.71808   0.72164
 Alpha virt. eigenvalues --    0.72769   0.73059   0.73255   0.73431   0.73761
 Alpha virt. eigenvalues --    0.74455   0.74633   0.75326   0.75533   0.76276
 Alpha virt. eigenvalues --    0.76334   0.76732   0.76914   0.77691   0.77817
 Alpha virt. eigenvalues --    0.78149   0.78482   0.79093   0.79477   0.80396
 Alpha virt. eigenvalues --    0.80792   0.80840   0.81009   0.81093   0.81828
 Alpha virt. eigenvalues --    0.82100   0.82292   0.82622   0.82908   0.83208
 Alpha virt. eigenvalues --    0.83587   0.84005   0.84286   0.84556   0.85018
 Alpha virt. eigenvalues --    0.85572   0.85788   0.86262   0.86660   0.87602
 Alpha virt. eigenvalues --    0.88007   0.88262   0.88539   0.89056   0.89270
 Alpha virt. eigenvalues --    0.89726   0.90607   0.90962   0.91076   0.91691
 Alpha virt. eigenvalues --    0.92243   0.92526   0.93411   0.94847   0.95050
 Alpha virt. eigenvalues --    0.95436   0.96488   0.96835   0.97337   0.97636
 Alpha virt. eigenvalues --    0.98214   0.98252   0.98443   0.99428   0.99825
 Alpha virt. eigenvalues --    1.00260   1.00465   1.00987   1.02158   1.02288
 Alpha virt. eigenvalues --    1.02782   1.03274   1.03522   1.03979   1.04820
 Alpha virt. eigenvalues --    1.05608   1.06000   1.06767   1.07405   1.07594
 Alpha virt. eigenvalues --    1.08284   1.08655   1.08809   1.09493   1.09795
 Alpha virt. eigenvalues --    1.09937   1.10298   1.11453   1.11666   1.11783
 Alpha virt. eigenvalues --    1.12488   1.13273   1.13771   1.13832   1.14683
 Alpha virt. eigenvalues --    1.15277   1.15528   1.15921   1.16081   1.16499
 Alpha virt. eigenvalues --    1.16741   1.17537   1.17629   1.19064   1.19710
 Alpha virt. eigenvalues --    1.20089   1.21178   1.22091   1.22313   1.22853
 Alpha virt. eigenvalues --    1.23071   1.23603   1.23775   1.24793   1.25097
 Alpha virt. eigenvalues --    1.25701   1.26340   1.27228   1.27900   1.28150
 Alpha virt. eigenvalues --    1.29398   1.29734   1.30356   1.30933   1.31644
 Alpha virt. eigenvalues --    1.31892   1.32280   1.32910   1.34078   1.34132
 Alpha virt. eigenvalues --    1.34589   1.34986   1.35882   1.35939   1.37020
 Alpha virt. eigenvalues --    1.37400   1.38210   1.39247   1.39676   1.40512
 Alpha virt. eigenvalues --    1.41155   1.42019   1.43523   1.44302   1.45174
 Alpha virt. eigenvalues --    1.46299   1.48001   1.48098   1.48563   1.49151
 Alpha virt. eigenvalues --    1.49533   1.50304   1.51592   1.53979   1.54687
 Alpha virt. eigenvalues --    1.54852   1.57068   1.57726   1.59879   1.60719
 Alpha virt. eigenvalues --    1.61705   1.62360   1.62936   1.63779   1.64305
 Alpha virt. eigenvalues --    1.64693   1.65585   1.66238   1.67178   1.67637
 Alpha virt. eigenvalues --    1.68092   1.68560   1.69328   1.70672   1.71243
 Alpha virt. eigenvalues --    1.72070   1.72361   1.73065   1.74474   1.75748
 Alpha virt. eigenvalues --    1.76377   1.76974   1.77943   1.78921   1.80010
 Alpha virt. eigenvalues --    1.80534   1.81879   1.82622   1.84189   1.84565
 Alpha virt. eigenvalues --    1.85544   1.86598   1.88085   1.88347   1.90540
 Alpha virt. eigenvalues --    1.90757   1.91528   1.93215   1.93439   1.93626
 Alpha virt. eigenvalues --    1.95858   1.95988   1.96761   1.97066   1.97177
 Alpha virt. eigenvalues --    1.97487   1.98380   1.99201   1.99611   2.00242
 Alpha virt. eigenvalues --    2.01081   2.01189   2.02236   2.03300   2.03513
 Alpha virt. eigenvalues --    2.03696   2.04106   2.05670   2.06303   2.06680
 Alpha virt. eigenvalues --    2.07111   2.08339   2.08655   2.11079   2.11884
 Alpha virt. eigenvalues --    2.12423   2.12888   2.13687   2.14629   2.15478
 Alpha virt. eigenvalues --    2.16581   2.19152   2.19753   2.20625   2.22227
 Alpha virt. eigenvalues --    2.23227   2.23801   2.25691   2.26508   2.27404
 Alpha virt. eigenvalues --    2.29704   2.31022   2.32245   2.34569   2.35776
 Alpha virt. eigenvalues --    2.36401   2.38161   2.38636   2.39996   2.40304
 Alpha virt. eigenvalues --    2.42350   2.42562   2.43167   2.43916   2.44542
 Alpha virt. eigenvalues --    2.44710   2.46903   2.47644   2.48416   2.50348
 Alpha virt. eigenvalues --    2.50568   2.51863   2.52934   2.53768   2.55526
 Alpha virt. eigenvalues --    2.55697   2.56425   2.60144   2.61851   2.64573
 Alpha virt. eigenvalues --    2.64847   2.69187   2.71159   2.72741   2.73273
 Alpha virt. eigenvalues --    2.74112   2.74387   2.74848   2.75062   2.75980
 Alpha virt. eigenvalues --    2.76103   2.78682   2.78991   2.79135   2.79415
 Alpha virt. eigenvalues --    2.80577   2.80732   2.81691   2.82457   2.84689
 Alpha virt. eigenvalues --    2.84887   2.87105   2.87510   2.88280   2.88749
 Alpha virt. eigenvalues --    2.89489   2.90661   2.92653   2.93272   2.93833
 Alpha virt. eigenvalues --    2.94476   2.95330   2.96291   2.96907   2.98197
 Alpha virt. eigenvalues --    2.98880   2.99625   3.00045   3.00437   3.01100
 Alpha virt. eigenvalues --    3.01754   3.02075   3.02528   3.03443   3.03544
 Alpha virt. eigenvalues --    3.05458   3.06098   3.06988   3.07118   3.07887
 Alpha virt. eigenvalues --    3.08702   3.09000   3.10062   3.10178   3.10941
 Alpha virt. eigenvalues --    3.11002   3.11759   3.14044   3.14615   3.18268
 Alpha virt. eigenvalues --    3.19728   3.21219   3.22399   3.23955   3.24263
 Alpha virt. eigenvalues --    3.25473   3.26664   3.27978   3.30613   3.32657
 Alpha virt. eigenvalues --    3.33586   3.33729   3.34944   3.35119   3.36132
 Alpha virt. eigenvalues --    3.36694   3.38233   3.39303   3.39734   3.40138
 Alpha virt. eigenvalues --    3.42074   3.43337   3.44382   3.46328   3.46680
 Alpha virt. eigenvalues --    3.47033   3.47143   3.48796   3.49549   3.50752
 Alpha virt. eigenvalues --    3.51369   3.54827   3.55531   3.56552   3.57065
 Alpha virt. eigenvalues --    3.58867   3.59755   3.60268   3.61760   3.62134
 Alpha virt. eigenvalues --    3.62615   3.64026   3.67489   3.70097   3.72087
 Alpha virt. eigenvalues --    3.73912   3.78131   3.78275   3.78379   3.79918
 Alpha virt. eigenvalues --    3.80476   3.82053   3.82936   3.86564   3.86855
 Alpha virt. eigenvalues --    3.87877   3.88980   3.89611   3.90872   3.94028
 Alpha virt. eigenvalues --    3.95482   3.96475   4.07145   4.09183   4.13142
 Alpha virt. eigenvalues --    4.15795   4.20521   4.22099   4.28854   4.30897
 Alpha virt. eigenvalues --    4.31363   4.33227   4.47850   4.49632   4.74290
 Alpha virt. eigenvalues --    4.87445   4.89325   4.93057   4.93511   5.02877
 Alpha virt. eigenvalues --    5.05117   5.08898   5.16230   5.19226   5.20187
 Alpha virt. eigenvalues --    5.21432   5.23014   5.25178   5.26704   5.28621
 Alpha virt. eigenvalues --    5.31820   5.33894   5.34828   5.35454   5.37947
 Alpha virt. eigenvalues --    5.43941   5.47436   5.52197   5.55214   5.74914
 Alpha virt. eigenvalues --    5.92283   8.47674  17.59455  17.65735  17.66856
 Alpha virt. eigenvalues --   23.40066  23.42254  23.48002  23.61978  23.63951
 Alpha virt. eigenvalues --   23.67484  23.72719  23.77599  23.86472  23.87975
 Alpha virt. eigenvalues --   23.88667  23.89196  23.92258  23.99452  24.01930
 Alpha virt. eigenvalues --   24.02890  24.03196  24.07408  24.09996  24.10780
 Alpha virt. eigenvalues --   24.12237  24.16084  24.18361  24.18741  24.19266
 Alpha virt. eigenvalues --   35.42644  49.66464  49.67769  49.78527  49.83061
 Alpha virt. eigenvalues --   49.85601  49.86993  49.92119 188.96635
 Electronic spatial extent (au):  <R**2>=         155310.0249
 Charge=              0.0000 electrons
 Dipole moment (field-independent basis, Debye):
    X=            -17.7132    Y=             -3.8020    Z=             -6.7198  Tot=             19.3227
 Quadrupole moment (field-independent basis, Debye-Ang):
   XX=           -444.5971   YY=           -213.5416   ZZ=           -301.1528
   XY=            -63.0520   XZ=           -219.8492   YZ=            -67.1673
 Traceless Quadrupole moment (field-independent basis, Debye-Ang):
   XX=           -124.8333   YY=            106.2222   ZZ=             18.6110
   XY=            -63.0520   XZ=           -219.8492   YZ=            -67.1673
 Octapole moment (field-independent basis, Debye-Ang**2):
  XXX=          -8118.9707  YYY=          -2137.4276  ZZZ=          -5777.8264  XYY=          -1978.5016
  XXY=          -1315.1679  XXZ=          -4514.2501  XZZ=          -4401.8532  YZZ=          -1593.0721
  YYZ=          -1701.3654  XYZ=           -772.1180
 Hexadecapole moment (field-independent basis, Debye-Ang**3):
 XXXX=        -139453.6304 YYYY=         -19455.6821 ZZZZ=         -89915.1561 XXXY=         -26571.8279
 XXXZ=         -76390.2313 YYYX=         -21562.1947 YYYZ=         -14287.8583 ZZZX=         -70371.3044
 ZZZY=         -24859.0928 XXYY=         -22637.6942 XXZZ=         -66636.1585 YYZZ=         -18406.3167
 XXYZ=         -12826.8315 YYXZ=         -15444.6054 ZZXY=         -16705.3565
 N-N= 3.776884314618D+03 E-N=-1.212680250557D+04  KE= 1.951032721630D+03
  Exact polarizability: 380.889 107.311 330.451 -83.709-122.508 362.700
 Approx polarizability: 356.490  61.322 359.455 -61.771 -85.985 369.453
 No NMR shielding tensors so no spin-rotation constants.
 Leave Link  601 at Tue Jan 19 18:00:12 2021, MaxMem=  5368709120 cpu:        12.5
 (Enter /usr/local/bin/G09/G09d//g09/l602.exe)
 FitSet:  NAtFit=    61 NAtPot=    61 NAtFrz=     0 MDM=    65 TotChg=   0.00000
 Breneman (CHELPG) radii used.
 Generate Potential Derived Charges using the Breneman model, NDens= 1.
 Grid spacing= 0.300 Box extension= 2.800
 NStep X,Y,Z=   62     50     52   Total possible points=      161200
 Number of Points to Fit=   30042

 **********************************************************************

            Electrostatic Properties Using The SCF Density

 **********************************************************************

       Atomic Center    1 is at   4.981328  0.071552 10.993252
       Atomic Center    2 is at   5.237190 -0.321152 11.796859
       Atomic Center    3 is at   3.721703 -0.115648 10.538604
       Atomic Center    4 is at   3.115443 -0.622336 11.027606
       Atomic Center    5 is at   3.348624  0.456768  9.338043
       Atomic Center    6 is at   2.486605  0.336960  9.009138
       Atomic Center    7 is at   4.260512  1.200576  8.637825
       Atomic Center    8 is at   4.008560  1.584128  7.828959
       Atomic Center    9 is at   5.554116  1.395680  9.108582
       Atomic Center   10 is at   6.571241  2.139654  8.393078
       Atomic Center   11 is at   7.424292  2.184832  8.762582
       Atomic Center   12 is at   6.352534  2.762240  7.236733
       Atomic Center   13 is at   5.487633  2.713152  6.900267
       Atomic Center   14 is at   7.313628  3.510208  6.440030
       Atomic Center   15 is at   6.859881  4.162080  5.285657
       Atomic Center   16 is at   5.964942  4.086784  5.044526
       Atomic Center   17 is at   7.706735  4.910298  4.500788
       Atomic Center   18 is at   9.054207  5.005312  4.845144
       Atomic Center   19 is at   9.516534  4.350528  5.975355
       Atomic Center   20 is at  10.415511  4.407104  6.204980
       Atomic Center   21 is at   8.656140  3.617536  6.763017
       Atomic Center   22 is at   8.980968  3.189056  7.521586
       Atomic Center   23 is at   7.209337  0.995072 10.903999
       Atomic Center   24 is at   7.243593  0.545792 11.752479
       Atomic Center   25 is at   7.874112  0.624832 10.319170
       Atomic Center   26 is at   7.379610  1.931072 11.030893
       Atomic Center   27 is at  11.211774  5.821504  4.267876
       Atomic Center   28 is at  11.572521  4.932928  4.304859
       Atomic Center   29 is at  11.643778  6.314048  3.566836
       Atomic Center   30 is at  11.360398  6.262464  5.106986
       Atomic Center   31 is at   5.874834  0.814528 10.306020
       Atomic Center   32 is at   7.303978  5.576563  3.386193
       Atomic Center   33 is at   9.824057  5.755027  4.009650
       Atomic Center   34 is at   6.491451  5.358080  3.188784
       Atomic Center   35 is at  11.625734  3.489158  8.897037
       Atomic Center   36 is at  11.799321  4.840243  8.824879
       Atomic Center   37 is at  11.333829  5.398848  9.405271
       Atomic Center   38 is at  12.684164  5.393856  7.871531
       Atomic Center   39 is at  12.895367  6.789120  7.750719
       Atomic Center   40 is at  12.443058  7.374848  8.313851
       Atomic Center   41 is at  13.756273  7.278336  6.816602
       Atomic Center   42 is at  13.881943  8.196864  6.744115
       Atomic Center   43 is at  14.450900  6.418048  5.966807
       Atomic Center   44 is at  15.035548  6.766656  5.332174
       Atomic Center   45 is at  14.279507  5.076032  6.059348
       Atomic Center   46 is at  14.754396  4.512768  5.493257
       Atomic Center   47 is at  13.388097  4.521920  7.004971
       Atomic Center   48 is at  13.186172  3.129984  7.116085
       Atomic Center   49 is at  13.649195  2.551744  6.553445
       Atomic Center   50 is at  12.324882  2.624128  8.035244
       Atomic Center   51 is at  12.196412  1.704768  8.095239
       Atomic Center   52 is at   9.413483  3.682848 10.235176
       Atomic Center   53 is at  11.304968  2.659072 11.327088
       Atomic Center   54 is at  10.131317  1.509414  9.570298
       Atomic Center   55 is at  10.537122  2.790195 10.108447
       Atomic Center   56 is at   3.560232  2.189824  5.300286
       Atomic Center   57 is at   4.022351  2.146560  4.620450
       Atomic Center   58 is at   3.325427  3.020160  5.397922
       Atomic Center   59 is at   4.825874  4.922944  2.761915
       Atomic Center   60 is at   4.705227  4.293120  2.368577
       Atomic Center   61 is at   4.096599  5.366400  2.843607
   30042 points will be used for fitting atomic charges
 Fitting point charges to electrostatic potential
 Charges from ESP fit, RMS=   0.00410 RRMS=   0.10515:
 ESP charges:
               1
     1  C    0.073117
     2  H    0.147543
     3  C   -0.275307
     4  H    0.177102
     5  C    0.122553
     6  H    0.113617
     7  C   -0.444485
     8  H    0.294288
     9  C    0.500214
    10  C   -0.510550
    11  H    0.293119
    12  C    0.059496
    13  H    0.090258
    14  C    0.082190
    15  C   -0.497338
    16  H    0.208922
    17  C    0.401102
    18  C    0.309644
    19  C   -0.357537
    20  H    0.208081
    21  C   -0.049509
    22  H    0.066388
    23  C   -0.080289
    24  H    0.104012
    25  H    0.133411
    26  H    0.124342
    27  C    0.131650
    28  H    0.001669
    29  H    0.053564
    30  H    0.029409
    31  N   -0.120643
    32  O   -0.881778
    33  O   -0.322797
    34  H    0.723866
    35  C   -0.097611
    36  C   -0.202282
    37  H    0.137204
    38  C    0.157326
    39  C   -0.259439
    40  H    0.166805
    41  C   -0.099879
    42  H    0.112687
    43  C   -0.112864
    44  H    0.119933
    45  C   -0.263404
    46  H    0.152786
    47  C    0.205885
    48  C   -0.332997
    49  H    0.176383
    50  C   -0.027464
    51  H    0.104026
    52  O   -0.785185
    53  O   -0.788722
    54  O   -0.800088
    55  S    1.583699
    56  O   -0.973136
    57  H    0.491630
    58  H    0.473417
    59  O   -1.133445
    60  H    0.546105
    61  H    0.539308
 Sum of ESP charges =   0.00000
 ESP charges with hydrogens summed into heavy atoms:
               1
     1  C    0.220660
     3  C   -0.098205
     5  C    0.236170
     7  C   -0.150197
     9  C    0.500214
    10  C   -0.217431
    12  C    0.149754
    14  C    0.082190
    15  C   -0.288417
    17  C    0.401102
    18  C    0.309644
    19  C   -0.149456
    21  C    0.016879
    23  C    0.281477
    27  C    0.216291
    31  N   -0.120643
    32  O   -0.157912
    33  O   -0.322797
    35  C   -0.097611
    36  C   -0.065079
    38  C    0.157326
    39  C   -0.092634
    41  C    0.012807
    43  C    0.007069
    45  C   -0.110618
    47  C    0.205885
    48  C   -0.156614
    50  C    0.076562
    52  O   -0.785185
    53  O   -0.788722
    54  O   -0.800088
    55  S    1.583699
    56  O   -0.008090
    59  O   -0.048033
 Charge=   0.00000 Dipole=   -17.5762    -3.8227    -6.5919 Tot=    19.1569
 -----------------------------------------------------------------

              Electrostatic Properties (Atomic Units)

 -----------------------------------------------------------------
    Center     Electric         -------- Electric Field --------
               Potential          X             Y             Z
 -----------------------------------------------------------------
    1 Atom    -14.687012
    2 Atom     -1.008087
    3 Atom    -14.737466
    4 Atom     -1.029238
    5 Atom    -14.724726
    6 Atom     -1.028815
    7 Atom    -14.737095
    8 Atom     -1.038547
    9 Atom    -14.654430
   10 Atom    -14.774665
   11 Atom     -1.080243
   12 Atom    -14.759190
   13 Atom     -1.065468
   14 Atom    -14.767792
   15 Atom    -14.793813
   16 Atom     -1.076843
   17 Atom    -14.719914
   18 Atom    -14.717848
   19 Atom    -14.807030
   20 Atom     -1.101999
   21 Atom    -14.806807
   22 Atom     -1.112789
   23 Atom    -14.770902
   24 Atom     -1.061380
   25 Atom     -1.078733
   26 Atom     -1.076254
   27 Atom    -14.798870
   28 Atom     -1.115835
   29 Atom     -1.111313
   30 Atom     -1.119300
   31 Atom    -18.255465
   32 Atom    -22.371115
   33 Atom    -22.351885
   34 Atom     -0.985725
   35 Atom    -14.795277
   36 Atom    -14.819193
   37 Atom     -1.121231
   38 Atom    -14.785817
   39 Atom    -14.813594
   40 Atom     -1.109756
   41 Atom    -14.816752
   42 Atom     -1.109985
   43 Atom    -14.816099
   44 Atom     -1.107901
   45 Atom    -14.813846
   46 Atom     -1.106684
   47 Atom    -14.786435
   48 Atom    -14.819639
   49 Atom     -1.112414
   50 Atom    -14.822145
   51 Atom     -1.126073
   52 Atom    -22.476597
   53 Atom    -22.487624
   54 Atom    -22.476306
   55 Atom    -59.115455
   56 Atom    -22.344936
   57 Atom     -0.935183
   58 Atom     -0.936138
   59 Atom    -22.335458
   60 Atom     -0.895380
   61 Atom     -0.917599
 -----------------------------------------------------------------
 Leave Link  602 at Tue Jan 19 18:00:18 2021, MaxMem=  5368709120 cpu:        45.5
 (Enter /usr/local/bin/G09/G09d//g09/l106.exe)
 NDeriv=   3 NFrqRd=  2 NDerD0=   0 MskFDP=      31 MskDFD=      31 MskDF0=       0
 At 1st pt F.D. properties on file   721 Mask=      31 NFrqRd=     2 NDeriv=     1 ND12= 1 LenFil=      94:
 Frequencies=    0.000000    0.072000
 Property number 1 -- Alpha(-w,w) frequency  1    0.000000:
                 1             2             3 
      1   0.380889D+03  0.107311D+03 -0.837087D+02
      2   0.107311D+03  0.330451D+03 -0.122508D+03
      3  -0.837087D+02 -0.122508D+03  0.362700D+03
 Property number 1 -- Alpha(-w,w) frequency  2    0.072000:
                 1             2             3 
      1   0.422959D+03  0.139605D+03 -0.118012D+03
      2   0.139605D+03  0.368459D+03 -0.157971D+03
      3  -0.118012D+03 -0.157971D+03  0.408770D+03
 Property number 5 -- Beta(-w,w,0) frequency  1    0.000000:
                 1 
      1  -0.199497D+04
      2  -0.188602D+04
      3  -0.171504D+04
      4   0.209587D+04
      5   0.194037D+04
      6  -0.224328D+04
      7  -0.188602D+04
      8  -0.171504D+04
      9  -0.158628D+04
     10   0.194037D+04
     11   0.173478D+04
     12  -0.190081D+04
     13   0.209587D+04
     14   0.194037D+04
     15   0.173478D+04
     16  -0.224328D+04
     17  -0.190081D+04
[...]
     6         -4.68071014         -3.35661683        -22.03020128
     1         -4.45320482         -3.14772608        -23.75945567
     6         -6.47195959         -1.93597393        -20.78482553
     1         -7.44657096         -0.78531884        -21.68673297
     6        -14.01157803          4.05123231        -20.02481456
     1        -15.34341682          5.20000974        -20.47471433
     1        -12.43186766          4.68145522        -20.65440683
     1        -14.34696967          2.42350205        -20.75120248
     6         -0.88871634         -6.26266482        -24.39170103
     1         -0.47139940         -4.52674940        -24.71053839
     1          0.50849900         -7.31811122        -24.86249283
     1         -2.34809666         -6.72243257        -25.36457784
     7        -13.87949081          3.82276946        -17.25291969
     8         -2.07970226         -7.12920804        -16.95166127
     8         -1.41189618         -6.58762039        -21.79331743
     1         -2.26056266         -7.00708564        -15.33313640
     6         -8.02350641         -0.15584714        -27.28381599
     6         -8.11669505         -2.61861676        -28.03946914
     1         -9.59457278         -3.54582380        -27.82222063
     6         -5.97566535         -3.76544270        -29.15161375
     6         -5.96898018         -6.31787801        -29.95688167
     1         -7.41443827         -7.29795148        -29.76121221
     6         -3.86200902         -7.34541004        -31.01625383
     1         -3.87932507         -9.02648643        -31.52784792
     6         -1.67812151         -5.90670321        -31.34121449
     1         -0.25094059         -6.63466760        -32.06655665
     6         -1.62097524         -3.45244545        -30.60612959
     1         -0.16000738         -2.50899310        -30.84732278
     6         -3.75316884         -2.30923677        -29.47734655
     6         -3.73729465          0.23583063        -28.68301507
     1         -2.28695988          1.20505283        -28.90035211
     6         -5.81441877          1.28824557        -27.60696030
     1         -5.77724435          2.96549609        -27.08199678
     8        -11.96452172         -0.57328174        -24.40292899
     8        -12.25140562          2.19016025        -28.01650269
     8         -9.75236121          3.35025590        -24.40135622
    16        -10.71979729          1.30218094        -25.93422989
     8         -7.20257061         -1.14813136        -10.46495997
     1         -5.68515478         -1.20463229        -10.80262863
     1         -7.74875695         -2.69524495        -10.43110874
     8         -2.59605478         -6.78836538        -12.00550496
     1         -1.84122311         -5.80912387        -11.30382491
     1         -3.36857981         -7.75636317        -10.96074617

 Electric dipole moment (dipole orientation):
 (Debye = 10**-18 statcoulomb cm , SI units = C m)
                  (au)            (Debye)         (10**-30 SI)
   Tot        0.760214D+01      0.193227D+02      0.644536D+02
   x          0.000000D+00      0.000000D+00      0.000000D+00
   y          0.000000D+00      0.000000D+00      0.000000D+00
   z          0.760214D+01      0.193227D+02      0.644536D+02

 Dipole polarizability, Alpha (dipole orientation).
 (esu units = cm**3 , SI units = C**2 m**2 J**-1)
 Alpha(0;0):
               (au)            (10**-24 esu)      (10**-40 SI)
   iso        0.358013D+03      0.530521D+02      0.590284D+02
   aniso      0.320235D+03      0.474539D+02      0.527996D+02
   xx         0.381609D+03      0.565487D+02      0.629189D+02
   yx        -0.146222D+03     -0.216678D+02     -0.241087D+02
   yy         0.347121D+03      0.514380D+02      0.572325D+02
   zx        -0.890935D+02     -0.132023D+02     -0.146895D+02
   zy         0.666833D+02      0.988144D+01      0.109946D+02
   zz         0.345310D+03      0.511697D+02      0.569339D+02
 Alpha(-w;w) w=  632.8nm:
                  (au)         (10**-24 esu)      (10**-40 SI)
   iso        0.400063D+03      0.592832D+02      0.659614D+02
   aniso      0.421322D+03      0.624334D+02      0.694666D+02
   xx         0.438690D+03      0.650072D+02      0.723303D+02
   yx        -0.188833D+03     -0.279822D+02     -0.311344D+02
   yy         0.388867D+03      0.576241D+02      0.641155D+02
   zx        -0.118737D+03     -0.175951D+02     -0.195772D+02
   zy         0.907141D+02      0.134424D+02      0.149567D+02
   zz         0.372631D+03      0.552181D+02      0.614385D+02

 First dipole hyperpolarizability, Beta (dipole orientation).
 ||, _|_  parallel and perpendicular components, (z) with respect to z axis,
 vector components x,y,z.  Values do not include the 1/n! factor of 1/2.
 (esu units = statvolt**-1 cm**4 , SI units = C**3 m**3 J**-2)
 Beta(0;0,0):
               (au)            (10**-30 esu)      (10**-50 SI)
   || (z)     0.268238D+04      0.231737D+02      0.860069D+01
   _|_(z)     0.894128D+03      0.772457D+01      0.286690D+01
   x         -0.207304D+05     -0.179094D+03     -0.664691D+02
   y          0.167354D+05      0.144581D+03      0.536599D+02
   z          0.134119D+05      0.115869D+03      0.430035D+02
   ||         0.596558D+04      0.515379D+02      0.191278D+02
   xxx       -0.345935D+04     -0.298861D+02     -0.110919D+02
   xxy        0.273703D+04      0.236458D+02      0.877591D+01
   yxy       -0.218089D+04     -0.188412D+02     -0.699271D+01
   yyy        0.178311D+04      0.154047D+02      0.571729D+01
   xxz        0.222870D+04      0.192542D+02      0.714601D+01
   yxz       -0.178979D+04     -0.154624D+02     -0.573873D+01
   yyz        0.141704D+04      0.122421D+02      0.454354D+01
   zxz       -0.126988D+04     -0.109708D+02     -0.407171D+01
   zyz        0.105834D+04      0.914325D+01      0.339343D+01
   zzz        0.824904D+03      0.712653D+01      0.264494D+01
 Beta(-w;w,0) w=  632.8nm:
                  (au)         (10**-30 esu)      (10**-50 SI)
   || (z)     0.582145D+04      0.502928D+02      0.186657D+02
   _|_(z)     0.199250D+04      0.172137D+02      0.638868D+01
   x         -0.464864D+05     -0.401606D+03     -0.149052D+03
   y          0.374303D+05      0.323369D+03      0.120015D+03
   z          0.291072D+05      0.251464D+03      0.933283D+02
   ||         0.132804D+05      0.114732D+03      0.425818D+02
   xxx       -0.775004D+04     -0.669543D+02     -0.248494D+02
   yxx        0.615768D+04      0.531976D+02      0.197438D+02
   yyx       -0.490746D+04     -0.423966D+02     -0.157351D+02
   zxx        0.483970D+04      0.418112D+02      0.155178D+02
   zyx       -0.386785D+04     -0.334152D+02     -0.124017D+02
   zzx       -0.289588D+04     -0.250181D+02     -0.928523D+01
   xxy        0.615046D+04      0.531352D+02      0.197206D+02
   yxy       -0.492716D+04     -0.425668D+02     -0.157983D+02
   yyy        0.399486D+04      0.345125D+02      0.128090D+02
   zxy       -0.390286D+04     -0.337177D+02     -0.125140D+02
   zyy        0.310397D+04      0.268159D+02      0.995244D+01
   zzy        0.239867D+04      0.207227D+02      0.769101D+01
   xxz        0.492154D+04      0.425183D+02      0.157802D+02
   yxz       -0.397283D+04     -0.343222D+02     -0.127383D+02
   yyz        0.317819D+04      0.274571D+02      0.101904D+02
   zxz       -0.278930D+04     -0.240973D+02     -0.894349D+01
   zyz        0.229061D+04      0.197890D+02      0.734451D+01
   zzz        0.170672D+04      0.147448D+02      0.547238D+01
 Beta(-2w;w,w) w=  632.8nm:
                  (au)         (10**-30 esu)      (10**-50 SI)
   || (z)    -0.138685D+05     -0.119813D+03     -0.444674D+02
   _|_(z)    -0.429149D+04     -0.370752D+02     -0.137601D+02
   x          0.116604D+06      0.100737D+04      0.373875D+03
   y         -0.936003D+05     -0.808633D+03     -0.300116D+03
   z         -0.693425D+05     -0.599065D+03     -0.222337D+03
   ||         0.329642D+05      0.284785D+03      0.105695D+03
   xxx        0.194270D+05      0.167834D+03      0.622899D+02
   yxx       -0.156734D+05     -0.135406D+03     -0.502547D+02
   zxx       -0.117539D+05     -0.101544D+03     -0.376872D+02
   xyx       -0.155381D+05     -0.134237D+03     -0.498206D+02
   yyx        0.124665D+05      0.107701D+03      0.399721D+02
   zyx        0.939908D+04      0.812008D+02      0.301369D+02
   xyy        0.125341D+05      0.108285D+03      0.401888D+02
   yyy       -0.995796D+04     -0.860290D+02     -0.319288D+02
   zyy       -0.769495D+04     -0.664784D+02     -0.246728D+02
   xzx       -0.122379D+05     -0.105726D+03     -0.392391D+02
   yzx        0.988656D+04      0.854122D+02      0.316999D+02
   zzx        0.707037D+04      0.610825D+02      0.226702D+02
   xzy        0.101345D+05      0.875544D+02      0.324950D+02
   yzy       -0.820494D+04     -0.708843D+02     -0.263080D+02
   zzy       -0.578732D+04     -0.499980D+02     -0.185563D+02
   xzz        0.671543D+04      0.580161D+02      0.215321D+02
   yzz       -0.540221D+04     -0.466708D+02     -0.173214D+02
   zzz       -0.300265D+04     -0.259406D+02     -0.962759D+01

 Second dipole hyperpolarizability, Gamma (dipole orientation).
 ||, _|_  isotropic parallel and perpendicular components.
 Values do not include the 1/n! factor of 1/6.
 (esu units = statvolt**-2 cm**5 , SI units = C**4 m**4 J**-3)
 Gamma(0;0,0,0):
               (au)            (10**-36 esu)      (10**-61 SI)
   ||         0.276152D+06      0.139089D+03      0.172191D+03
   _|_        0.920506D+05      0.463631D+02      0.573971D+02
   xxxx       0.314863D+06      0.158587D+03      0.196329D+03
   xxyx      -0.220896D+06     -0.111259D+03     -0.137737D+03
   xxyy       0.184328D+06      0.928407D+02      0.114936D+03
   yxyy      -0.145938D+06     -0.735043D+02     -0.909976D+02
   yyyy       0.152268D+06      0.766926D+02      0.949447D+02
   xxzx      -0.186421D+06     -0.938945D+02     -0.116240D+03
   xxzy       0.147100D+06      0.740897D+02      0.917223D+02
   yxzy      -0.120921D+06     -0.609042D+02     -0.753988D+02
   yyzy       0.101082D+06      0.509120D+02      0.630286D+02
   xxzz       0.127971D+06      0.644552D+02      0.797949D+02
   yxzz      -0.938512D+05     -0.472700D+02     -0.585198D+02
   yyzz       0.928892D+05      0.467855D+02      0.579199D+02
   zxzz      -0.661070D+05     -0.332961D+02     -0.412202D+02
   zyzz       0.557662D+05      0.280877D+02      0.347723D+02
   zzzz       0.103246D+06      0.520020D+02      0.643780D+02
 Gamma(-w;w,0,0) w=  632.8nm:
                  (au)         (10**-36 esu)      (10**-61 SI)
   ||         0.782418D+06      0.394080D+03      0.487867D+03
   _|_        0.256451D+06      0.129167D+03      0.159907D+03
   xxxx       0.934344D+06      0.470601D+03      0.582599D+03
   yxxx      -0.710518D+06     -0.357866D+03     -0.443035D+03
   yyxx       0.573800D+06      0.289006D+03      0.357786D+03
   zxxx      -0.569392D+06     -0.286786D+03     -0.355038D+03
   zyxx       0.450336D+06      0.226821D+03      0.280802D+03
   zzxx       0.371673D+06      0.187200D+03      0.231752D+03
   xxyx      -0.708552D+06     -0.356876D+03     -0.441809D+03
   yxyx       0.575295D+06      0.289759D+03      0.358718D+03
   yyyx      -0.461057D+06     -0.232220D+03     -0.287487D+03
   zxyx       0.453761D+06      0.228546D+03      0.282937D+03
   zyyx      -0.366911D+06     -0.184802D+03     -0.228783D+03
   zzyx      -0.291033D+06     -0.146584D+03     -0.181470D+03
   xxyy       0.577327D+06      0.290782D+03      0.359986D+03
   yxyy      -0.464920D+06     -0.234166D+03     -0.289895D+03
   yyyy       0.413314D+06      0.208174D+03      0.257717D+03
   zxyy      -0.372230D+06     -0.187481D+03     -0.232100D+03
   zyyy       0.304108D+06      0.153170D+03      0.189623D+03
   zzyy       0.258510D+06      0.130204D+03      0.161191D+03
   xxzx      -0.574188D+06     -0.289201D+03     -0.358028D+03
   yxzx       0.458598D+06      0.230982D+03      0.285953D+03
   yyzx      -0.372533D+06     -0.187634D+03     -0.232289D+03
   zxzx       0.356576D+06      0.179596D+03      0.222339D+03
   zyzx      -0.277180D+06     -0.139607D+03     -0.172832D+03
   zzzx      -0.201070D+06     -0.101273D+03     -0.125375D+03
   xxzy       0.456965D+06      0.230159D+03      0.284935D+03
   yxzy      -0.373391D+06     -0.188066D+03     -0.232823D+03
   yyzy       0.306934D+06      0.154593D+03      0.191385D+03
   zxzy      -0.278511D+06     -0.140278D+03     -0.173662D+03
   zyzy       0.244651D+06      0.123223D+03      0.152549D+03
   zzzy       0.166396D+06      0.838088D+02      0.103754D+03
   xxzz       0.368146D+06      0.185424D+03      0.229553D+03
   yxzz      -0.288916D+06     -0.145518D+03     -0.180150D+03
   yyzz       0.253494D+06      0.127677D+03      0.158063D+03
   zxzz      -0.198996D+06     -0.100228D+03     -0.124081D+03
   zyzz       0.163892D+06      0.825477D+02      0.102193D+03
   zzzz       0.194143D+06      0.977841D+02      0.121056D+03
 Gamma(-2w;w,w,0) w=  632.8nm:
                  (au)         (10**-36 esu)      (10**-61 SI)
   ||         0.775886D+06      0.390790D+03      0.483794D+03
   _|_        0.218993D+06      0.110300D+03      0.159907D+03
   xxxx       0.801696D+06      0.403790D+03      0.499888D+03
   yxxx      -0.630822D+06     -0.317726D+03     -0.393341D+03
   zxxx      -0.161291D+06     -0.812372D+02     -0.100571D+03
   xyxx      -0.606811D+06     -0.305632D+03     -0.378370D+03
   yyxx       0.544024D+06      0.274009D+03      0.339220D+03
   zyxx       0.126872D+06      0.639015D+02      0.791094D+02
   xyyx       0.513422D+06      0.258595D+03      0.320138D+03
   yyyx      -0.463038D+06     -0.233218D+03     -0.288722D+03
   zyyx      -0.932665D+05     -0.469755D+02     -0.581552D+02
   xzxx      -0.446555D+06     -0.224916D+03     -0.278444D+03
   yzxx       0.359380D+06      0.181009D+03      0.224087D+03
   zzxx       0.296509D+06      0.149343D+03      0.184885D+03
   xzyx       0.357628D+06      0.180126D+03      0.222995D+03
   yzyx      -0.303951D+06     -0.153091D+03     -0.189525D+03
   zzyx      -0.221587D+06     -0.111606D+03     -0.138168D+03
   xzzx       0.222570D+06      0.112102D+03      0.138781D+03
   yzzx      -0.156954D+06     -0.790527D+02     -0.978665D+02
   zzzx      -0.245479D+06     -0.123640D+03     -0.153066D+03
   xxxy      -0.677615D+06     -0.341294D+03     -0.422519D+03
   yxxy       0.575745D+06      0.289985D+03      0.358999D+03
   zxxy       0.155833D+06      0.784882D+02      0.971676D+02
   xyxy       0.523963D+06      0.263904D+03      0.326711D+03
   yyxy      -0.449277D+06     -0.226287D+03     -0.280141D+03
   zyxy      -0.101292D+06     -0.510177D+02     -0.631594D+02
   xyyy      -0.401469D+06     -0.202208D+03     -0.250331D+03
   yyyy       0.416654D+06      0.209856D+03      0.259800D+03
   zyyy       0.508997D+05      0.256366D+02      0.317379D+02
   xzxy       0.382015D+06      0.192409D+03      0.238201D+03
   yzxy      -0.306935D+06     -0.154594D+03     -0.191386D+03
   zzxy      -0.221993D+06     -0.111811D+03     -0.138421D+03
   xzyy      -0.281518D+06     -0.141792D+03     -0.175538D+03
   yzyy       0.232348D+06      0.117027D+03      0.144878D+03
   zzyy       0.194940D+06      0.981852D+02      0.121552D+03
   xzzy      -0.182597D+06     -0.919686D+02     -0.113856D+03
   yzzy       0.163951D+06      0.825773D+02      0.102230D+03
   zzzy       0.177525D+06      0.894137D+02      0.110693D+03
   xxxz      -0.320495D+06     -0.161424D+03     -0.199841D+03
   yxxz       0.251327D+06      0.126586D+03      0.156712D+03
   zxxz       0.141217D+06      0.711269D+02      0.880544D+02
   xyxz       0.235151D+06      0.118438D+03      0.146626D+03
   yyxz      -0.201423D+06     -0.101451D+03     -0.125595D+03
   zyxz      -0.799185D+05     -0.402525D+02     -0.498322D+02
   xyyz      -0.174765D+06     -0.880239D+02     -0.108973D+03
   yyyz       0.159479D+06      0.803248D+02      0.994413D+02
   zyyz       0.680514D+05      0.342754D+02      0.424326D+02
   xzxz       0.284424D+06      0.143256D+03      0.177349D+03
   yzxz      -0.200973D+06     -0.101224D+03     -0.125314D+03
   zzxz      -0.171821D+06     -0.865408D+02     -0.107137D+03
   xzyz      -0.214444D+06     -0.108009D+03     -0.133714D+03
   yzyz       0.197817D+06      0.996346D+02      0.123347D+03
   zzyz       0.137147D+06      0.690768D+02      0.855165D+02
   xzzz       0.932304D+05      0.469573D+02      0.581327D+02
   yzzz      -0.104113D+06     -0.524384D+02     -0.649182D+02
   zzzz       0.738310D+06      0.371864D+03      0.460364D+03

 ----------------------------------------------------------------------
 1\1\GINC-FLAME4\SP\RM11\6-311+G(d)\C25H27N1O7S1\DANIELMACHADO\20-Jan-2
 021\0\\#p M11/6-311+g(d) polar=gamma pop=chelpg density=current NoSymm
 \\ONL_VSNS_0_M062X\\0,1\C,0,4.981328,0.071552,10.993252\H,0,5.23719,-0
 .321152,11.796859\C,0,3.721703,-0.115648,10.538604\H,0,3.115443,-0.622
 336,11.027606\C,0,3.348624,0.456768,9.338043\H,0,2.486605,0.33696,9.00
 9138\C,0,4.260512,1.200576,8.637825\H,0,4.00856,1.584128,7.828959\C,0,
 5.554116,1.39568,9.108582\C,0,6.571241,2.139654,8.393078\H,0,7.424292,
 2.184832,8.762582\C,0,6.352534,2.76224,7.236733\H,0,5.487633,2.713152,
 6.900267\C,0,7.313628,3.510208,6.44003\C,0,6.859881,4.16208,5.285657\H
 ,0,5.964942,4.086784,5.044526\C,0,7.706735,4.910298,4.500788\C,0,9.054
 207,5.005312,4.845144\C,0,9.516534,4.350528,5.975355\H,0,10.415511,4.4
 07104,6.20498\C,0,8.65614,3.617536,6.763017\H,0,8.980968,3.189056,7.52
 1586\C,0,7.209337,0.995072,10.903999\H,0,7.243593,0.545792,11.752479\H
 ,0,7.874112,0.624832,10.31917\H,0,7.37961,1.931072,11.030893\C,0,11.21
 1774,5.821504,4.267876\H,0,11.572521,4.932928,4.304859\H,0,11.643778,6
 .314048,3.566836\H,0,11.360398,6.262464,5.106986\N,0,5.874834,0.814528
 ,10.30602\O,0,7.303978,5.576563,3.386193\O,0,9.824057,5.755027,4.00965
 \H,0,6.491451,5.35808,3.188784\C,0,11.625734,3.489158,8.897037\C,0,11.
 799321,4.840243,8.824879\H,0,11.333829,5.398848,9.405271\C,0,12.684164
 ,5.393856,7.871531\C,0,12.895367,6.78912,7.750719\H,0,12.443058,7.3748
 48,8.313851\C,0,13.756273,7.278336,6.816602\H,0,13.881943,8.196864,6.7
 44115\C,0,14.4509,6.418048,5.966807\H,0,15.035548,6.766656,5.332174\C,
 0,14.279507,5.076032,6.059348\H,0,14.754396,4.512768,5.493257\C,0,13.3
 88097,4.52192,7.004971\C,0,13.186172,3.129984,7.116085\H,0,13.649195,2
 .551744,6.553445\C,0,12.324882,2.624128,8.035244\H,0,12.196412,1.70476
 8,8.095239\O,0,9.413483,3.682848,10.235176\O,0,11.304968,2.659072,11.3
 27088\O,0,10.131317,1.509414,9.570298\S,0,10.537122,2.790195,10.108447
 \O,0,3.560232,2.189824,5.300286\H,0,4.022351,2.14656,4.62045\H,0,3.325
 427,3.02016,5.397922\O,0,4.825874,4.922944,2.761915\H,0,4.705227,4.293
 12,2.368577\H,0,4.096599,5.3664,2.843607\\Version=EM64L-G09RevD.01\HF=
 -1947.3184559\RMSD=9.300e-09\Dipole=-6.9688947,-1.4958075,-2.6437898\P
 olar=380.8892055,107.3114202,330.4507043,-83.7087487,-122.5076463,362.
 7004353\HyperPolar=-1994.9725467,-1886.0210897,-1715.0412285,-1586.278
 6523,2095.8715855,1940.365048,1734.7783315,-2243.2837545,-1900.8065972
 ,2046.7494981\DQPolar=8766.5365676,-2514.4113404,-6252.1252272,4123.56
 78602,3970.2345153,1022.8348299,1896.0352288,3046.8538747,-4942.889103
 5,6462.3725816,-212.945697,4018.4478376,-4931.6890626,-3430.830075,836
 2.5191377,-2312.6517203,4684.1438755,556.9421882\Quadrupole=-92.810480
 7,78.9736327,13.836848,-46.8775864,-163.452501,-49.937241\PG=C01 [X(C2
 5H27N1O7S1)]\\@


 WHAT, THEN, IS TIME?  IF NO ONE ASKS ME, I KNOW WHAT IT IS.
 IF I WISH TO EXPLAIN WHAT IT IS TO HIM WHO ASKS ME, I DO NOT KNOW.
                                   -- ST. AUGUSTINE (FIFTH CENTURY)
 Job cpu time:       8 days  7 hours 19 minutes 14.9 seconds.
 File lengths (MBytes):  RWF=   3079 Int=      0 D2E=      0 Chk=    202 Scr=      1
 Normal termination of Gaussian 09 at Wed Jan 20 15:23:16 2021.
Wed Jan 20 15:23:16 -02 2021
