Mon Jan 18 08:31:28 -02 2021
flame1
 Entering Gaussian System, Link 0=/usr/local/bin/G09/G09d/g09/g09
 Initial command:
 /usr/local/bin/G09/G09d//g09/l1.exe "/work/danielmachado/job-23479/Gau-9949.inp" -scrdir="/work/danielmachado/job-23479/"
 Entering Link 1 = /usr/local/bin/G09/G09d//g09/l1.exe PID=      9951.
  
 Copyright (c) 1988,1990,1992,1993,1995,1998,2003,2009,2013,
            Gaussian, Inc.  All Rights Reserved.
  
 This is part of the Gaussian(R) 09 program.  It is based on
 the Gaussian(R) 03 system (copyright 2003, Gaussian, Inc.),
 the Gaussian(R) 98 system (copyright 1998, Gaussian, Inc.),
 the Gaussian(R) 94 system (copyright 1995, Gaussian, Inc.),
 the Gaussian 92(TM) system (copyright 1992, Gaussian, Inc.),
 the Gaussian 90(TM) system (copyright 1990, Gaussian, Inc.),
 the Gaussian 88(TM) system (copyright 1988, Gaussian, Inc.),
 the Gaussian 86(TM) system (copyright 1986, Carnegie Mellon
 University), and the Gaussian 82(TM) system (copyright 1983,
 Carnegie Mellon University). Gaussian is a federally registered
 trademark of Gaussian, Inc.
  
 This software contains proprietary and confidential information,
 including trade secrets, belonging to Gaussian, Inc.
  
 This software is provided under written license and may be
 used, copied, transmitted, or stored only in accord with that
 written license.
  
 The following legend is applicable only to US Government
 contracts under FAR:
  
                    RESTRICTED RIGHTS LEGEND
  
 Use, reproduction and disclosure by the US Government is
 subject to restrictions as set forth in subparagraphs (a)
 and (c) of the Commercial Computer Software - Restricted
 Rights clause in FAR 52.227-19.
  
 Gaussian, Inc.
 340 Quinnipiac St., Bldg. 40, Wallingford CT 06492
  
  
 ---------------------------------------------------------------
 Warning -- This program may not be used in any manner that
 competes with the business of Gaussian, Inc. or will provide
 assistance to any competitor of Gaussian, Inc.  The licensee
 of this program is prohibited from giving any competitor of
 Gaussian, Inc. access to this program.  By using this program,
 the user acknowledges that Gaussian, Inc. is engaged in the
 business of creating and licensing software in the field of
 computational chemistry and represents and warrants to the
 licensee that it is not a competitor of Gaussian, Inc. and that
 it will not use this program in any manner prohibited above.
 ---------------------------------------------------------------
  

 Cite this work as:
 Gaussian 09, Revision D.01,
 M. J. Frisch, G. W. Trucks, H. B. Schlegel, G. E. Scuseria, 
 M. A. Robb, J. R. Cheeseman, G. Scalmani, V. Barone, B. Mennucci, 
 G. A. Petersson, H. Nakatsuji, M. Caricato, X. Li, H. P. Hratchian, 
 A. F. Izmaylov, J. Bloino, G. Zheng, J. L. Sonnenberg, M. Hada, 
 M. Ehara, K. Toyota, R. Fukuda, J. Hasegawa, M. Ishida, T. Nakajima, 
 Y. Honda, O. Kitao, H. Nakai, T. Vreven, J. A. Montgomery, Jr., 
 J. E. Peralta, F. Ogliaro, M. Bearpark, J. J. Heyd, E. Brothers, 
 K. N. Kudin, V. N. Staroverov, T. Keith, R. Kobayashi, J. Normand, 
 K. Raghavachari, A. Rendell, J. C. Burant, S. S. Iyengar, J. Tomasi, 
 M. Cossi, N. Rega, J. M. Millam, M. Klene, J. E. Knox, J. B. Cross, 
 V. Bakken, C. Adamo, J. Jaramillo, R. Gomperts, R. E. Stratmann, 
 O. Yazyev, A. J. Austin, R. Cammi, C. Pomelli, J. W. Ochterski, 
 R. L. Martin, K. Morokuma, V. G. Zakrzewski, G. A. Voth, 
 P. Salvador, J. J. Dannenberg, S. Dapprich, A. D. Daniels, 
 O. Farkas, J. B. Foresman, J. V. Ortiz, J. Cioslowski, 
 and D. J. Fox, Gaussian, Inc., Wallingford CT, 2013.
 
 ******************************************
 Gaussian 09:  EM64L-G09RevD.01 24-Apr-2013
                18-Jan-2021 
 ******************************************
 %nprocshared=8
 Will use up to    8 processors via shared memory.
 %chk=ONL_VSNS_0_M06HF.chk
 %mem=40GB
 -----------------------------------------------------------------
 #p M06HF/6-311+g(d) polar=gamma pop=chelpg density=current NoSymm
 -----------------------------------------------------------------
 1/30=1,38=101,83=1,84=49/1,6;
 2/12=2,15=1,17=6,18=5,40=1/2;
 3/5=4,6=6,7=11,11=2,16=1,25=1,30=1,74=-52/1,2,3;
 4/69=2/1;
 5/5=2,38=5,96=-2,98=1/2;
 8/6=4,10=90,11=11/1;
 10/6=20001,13=10,31=1,60=-2,72=3/2;
 6/7=2,8=2,9=2,10=2,12=2,15=8,20=3,22=-1,28=1/1,2;
 1/38=100,84=49/6(1);
 99/9=1/99;
 3/5=4,6=6,7=11,11=2,14=-3,16=1,25=1,30=1,74=-52/1,2,3;
 4/5=5,16=3,69=2/1;
 5/5=2,38=5,96=-2,98=1/2;
 8/6=4,10=90,11=11/1;
 10/6=20001,13=10,31=1,60=-2,72=3/2;
 6/7=2,8=2,9=2,10=2,12=2,15=8,20=3,22=-1,28=1/1,2;
 1/38=100,84=49/6(-6);
 99/9=1/99;
 Leave Link    1 at Mon Jan 18 08:31:28 2021, MaxMem=  5368709120 cpu:         0.8
 (Enter /usr/local/bin/G09/G09d//g09/l101.exe)
 ----------------
 ONL_VSNS_0_M06HF
 ----------------
 Symbolic Z-matrix:
 Charge =  0 Multiplicity = 1
 C                     4.98133   0.07155   10.99325 
 H                     5.23719  -0.32115   11.79686 
 C                     3.7217   -0.11565   10.5386 
 H                     3.11544  -0.62234   11.02761 
 C                     3.34862   0.45677   9.33804 
 H                     2.4866    0.33696   9.00914 
 C                     4.26051   1.20058   8.63782 
 H                     4.00856   1.58413   7.82896 
 C                     5.55412   1.39568   9.10858 
 C                     6.57124   2.13965   8.39308 
 H                     7.42429   2.18483   8.76258 
 C                     6.35253   2.76224   7.23673 
 H                     5.48763   2.71315   6.90027 
 C                     7.31363   3.51021   6.44003 
 C                     6.85988   4.16208   5.28566 
 H                     5.96494   4.08678   5.04453 
 C                     7.70674   4.9103    4.50079 
 C                     9.05421   5.00531   4.84514 
 C                     9.51653   4.35053   5.97536 
 H                     10.41551   4.4071    6.20498 
 C                     8.65614   3.61754   6.76302 
 H                     8.98097   3.18906   7.52159 
 C                     7.20934   0.99507   10.904 
 H                     7.24359   0.54579   11.75248 
 H                     7.87411   0.62483   10.31917 
 H                     7.37961   1.93107   11.03089 
 C                     11.21177   5.8215    4.26788 
 H                     11.57252   4.93293   4.30486 
 H                     11.64378   6.31405   3.56684 
 H                     11.3604   6.26246   5.10699 
 N                     5.87483   0.81453   10.30602 
 O                     7.30398   5.57656   3.38619 
 O                     9.82406   5.75503   4.00965 
 H                     6.49145   5.35808   3.18878 
 C                     11.62573   3.48916   8.89704 
 C                     11.79932   4.84024   8.82488 
 H                     11.33383   5.39885   9.40527 
 C                     12.68416   5.39386   7.87153 
 C                     12.89537   6.78912   7.75072 
 H                     12.44306   7.37485   8.31385 
 C                     13.75627   7.27834   6.8166 
 H                     13.88194   8.19686   6.74412 
 C                     14.4509   6.41805   5.96681 
 H                     15.03555   6.76666   5.33217 
 C                     14.27951   5.07603   6.05935 
 H                     14.7544   4.51277   5.49326 
 C                     13.3881   4.52192   7.00497 
 C                     13.18617   3.12998   7.11608 
 H                     13.6492   2.55174   6.55344 
 C                     12.32488   2.62413   8.03524 
 H                     12.19641   1.70477   8.09524 
 O                     9.41348   3.68285   10.23518 
 O                     11.30497   2.65907   11.32709 
 O                     10.13132   1.50941   9.5703 
 S                     10.53712   2.7902    10.10845 
 O                     3.56023   2.18982   5.30029 
 H                     4.02235   2.14656   4.62045 
 H                     3.32543   3.02016   5.39792 
 O                     4.82587   4.92294   2.76192 
 H                     4.70523   4.29312   2.36858 
 H                     4.0966    5.3664    2.84361 
 
 NAtoms=     61 NQM=       61 NQMF=       0 NMMI=      0 NMMIF=      0
                NMic=       0 NMicF=      0.
                    Isotopes and Nuclear Properties:
 (Nuclear quadrupole moments (NQMom) in fm**2, nuclear magnetic moments (NMagM)
  in nuclear magnetons)

  Atom         1           2           3           4           5           6           7           8           9          10
 IAtWgt=          12           1          12           1          12           1          12           1          12          12
 AtmWgt=  12.0000000   1.0078250  12.0000000   1.0078250  12.0000000   1.0078250  12.0000000   1.0078250  12.0000000  12.0000000
 NucSpn=           0           1           0           1           0           1           0           1           0           0
 AtZEff=   0.0000000   0.0000000   0.0000000   0.0000000   0.0000000   0.0000000   0.0000000   0.0000000   0.0000000   0.0000000
 NQMom=    0.0000000   0.0000000   0.0000000   0.0000000   0.0000000   0.0000000   0.0000000   0.0000000   0.0000000   0.0000000
 NMagM=    0.0000000   2.7928460   0.0000000   2.7928460   0.0000000   2.7928460   0.0000000   2.7928460   0.0000000   0.0000000
 AtZNuc=   6.0000000   1.0000000   6.0000000   1.0000000   6.0000000   1.0000000   6.0000000   1.0000000   6.0000000   6.0000000

  Atom        11          12          13          14          15          16          17          18          19          20
 IAtWgt=           1          12           1          12          12           1          12          12          12           1
 AtmWgt=   1.0078250  12.0000000   1.0078250  12.0000000  12.0000000   1.0078250  12.0000000  12.0000000  12.0000000   1.0078250
 NucSpn=           1           0           1           0           0           1           0           0           0           1
 AtZEff=   0.0000000   0.0000000   0.0000000   0.0000000   0.0000000   0.0000000   0.0000000   0.0000000   0.0000000   0.0000000
 NQMom=    0.0000000   0.0000000   0.0000000   0.0000000   0.0000000   0.0000000   0.0000000   0.0000000   0.0000000   0.0000000
 NMagM=    2.7928460   0.0000000   2.7928460   0.0000000   0.0000000   2.7928460   0.0000000   0.0000000   0.0000000   2.7928460
 AtZNuc=   1.0000000   6.0000000   1.0000000   6.0000000   6.0000000   1.0000000   6.0000000   6.0000000   6.0000000   1.0000000

  Atom        21          22          23          24          25          26          27          28          29          30
 IAtWgt=          12           1          12           1           1           1          12           1           1           1
 AtmWgt=  12.0000000   1.0078250  12.0000000   1.0078250   1.0078250   1.0078250  12.0000000   1.0078250   1.0078250   1.0078250
 NucSpn=           0           1           0           1           1           1           0           1           1           1
 AtZEff=   0.0000000   0.0000000   0.0000000   0.0000000   0.0000000   0.0000000   0.0000000   0.0000000   0.0000000   0.0000000
 NQMom=    0.0000000   0.0000000   0.0000000   0.0000000   0.0000000   0.0000000   0.0000000   0.0000000   0.0000000   0.0000000
 NMagM=    0.0000000   2.7928460   0.0000000   2.7928460   2.7928460   2.7928460   0.0000000   2.7928460   2.7928460   2.7928460
 AtZNuc=   6.0000000   1.0000000   6.0000000   1.0000000   1.0000000   1.0000000   6.0000000   1.0000000   1.0000000   1.0000000

  Atom        31          32          33          34          35          36          37          38          39          40
 IAtWgt=          14          16          16           1          12          12           1          12          12           1
 AtmWgt=  14.0030740  15.9949146  15.9949146   1.0078250  12.0000000  12.0000000   1.0078250  12.0000000  12.0000000   1.0078250
 NucSpn=           2           0           0           1           0           0           1           0           0           1
 AtZEff=   0.0000000   0.0000000   0.0000000   0.0000000   0.0000000   0.0000000   0.0000000   0.0000000   0.0000000   0.0000000
 NQMom=    2.0440000   0.0000000   0.0000000   0.0000000   0.0000000   0.0000000   0.0000000   0.0000000   0.0000000   0.0000000
 NMagM=    0.4037610   0.0000000   0.0000000   2.7928460   0.0000000   0.0000000   2.7928460   0.0000000   0.0000000   2.7928460
 AtZNuc=   7.0000000   8.0000000   8.0000000   1.0000000   6.0000000   6.0000000   1.0000000   6.0000000   6.0000000   1.0000000

  Atom        41          42          43          44          45          46          47          48          49          50
 IAtWgt=          12           1          12           1          12           1          12          12           1          12
 AtmWgt=  12.0000000   1.0078250  12.0000000   1.0078250  12.0000000   1.0078250  12.0000000  12.0000000   1.0078250  12.0000000
 NucSpn=           0           1           0           1           0           1           0           0           1           0
 AtZEff=   0.0000000   0.0000000   0.0000000   0.0000000   0.0000000   0.0000000   0.0000000   0.0000000   0.0000000   0.0000000
 NQMom=    0.0000000   0.0000000   0.0000000   0.0000000   0.0000000   0.0000000   0.0000000   0.0000000   0.0000000   0.0000000
 NMagM=    0.0000000   2.7928460   0.0000000   2.7928460   0.0000000   2.7928460   0.0000000   0.0000000   2.7928460   0.0000000
 AtZNuc=   6.0000000   1.0000000   6.0000000   1.0000000   6.0000000   1.0000000   6.0000000   6.0000000   1.0000000   6.0000000

  Atom        51          52          53          54          55          56          57          58          59          60
 IAtWgt=           1          16          16          16          32          16           1           1          16           1
 AtmWgt=   1.0078250  15.9949146  15.9949146  15.9949146  31.9720718  15.9949146   1.0078250   1.0078250  15.9949146   1.0078250
 NucSpn=           1           0           0           0           0           0           1           1           0           1
 AtZEff=   0.0000000   0.0000000   0.0000000   0.0000000   0.0000000   0.0000000   0.0000000   0.0000000   0.0000000   0.0000000
 NQMom=    0.0000000   0.0000000   0.0000000   0.0000000   0.0000000   0.0000000   0.0000000   0.0000000   0.0000000   0.0000000
 NMagM=    2.7928460   0.0000000   0.0000000   0.0000000   0.0000000   0.0000000   2.7928460   2.7928460   0.0000000   2.7928460
 AtZNuc=   1.0000000   8.0000000   8.0000000   8.0000000  16.0000000   8.0000000   1.0000000   1.0000000   8.0000000   1.0000000

  Atom        61
 IAtWgt=           1
 AtmWgt=   1.0078250
 NucSpn=           1
 AtZEff=   0.0000000
 NQMom=    0.0000000
 NMagM=    2.7928460
 AtZNuc=   1.0000000
 Using perturbation frequencies:    0.000000    0.072000
 Leave Link  101 at Mon Jan 18 08:31:29 2021, MaxMem=  5368709120 cpu:         2.4
 (Enter /usr/local/bin/G09/G09d//g09/l106.exe)
 Differentiate once with respect to electric field.
 Nuclear step= 0.001000 Angstroms, electric field step= 0.000333 atomic units, NStep=1.
 Leave Link  106 at Mon Jan 18 08:31:29 2021, MaxMem=  5368709120 cpu:         0.0
 (Enter /usr/local/bin/G09/G09d//g09/l202.exe)
 Symmetry turned off by external request.
 Stoichiometry    C25H27NO7S
 Framework group  C1[X(C25H27NO7S)]
 Deg. of freedom   177
 Full point group                 C1      NOp   1
                          Input orientation:                          
 ---------------------------------------------------------------------
 Center     Atomic      Atomic             Coordinates (Angstroms)
 Number     Number       Type             X           Y           Z
 ---------------------------------------------------------------------
      1          6           0        4.981328    0.071552   10.993252
      2          1           0        5.237190   -0.321152   11.796859
      3          6           0        3.721703   -0.115648   10.538604
      4          1           0        3.115443   -0.622336   11.027606
      5          6           0        3.348624    0.456768    9.338043
      6          1           0        2.486605    0.336960    9.009138
      7          6           0        4.260512    1.200576    8.637825
      8          1           0        4.008560    1.584128    7.828959
      9          6           0        5.554116    1.395680    9.108582
     10          6           0        6.571241    2.139654    8.393078
     11          1           0        7.424292    2.184832    8.762582
     12          6           0        6.352534    2.762240    7.236733
     13          1           0        5.487633    2.713152    6.900267
     14          6           0        7.313628    3.510208    6.440030
     15          6           0        6.859881    4.162080    5.285657
     16          1           0        5.964942    4.086784    5.044526
     17          6           0        7.706735    4.910298    4.500788
     18          6           0        9.054207    5.005312    4.845144
     19          6           0        9.516534    4.350528    5.975355
     20          1           0       10.415511    4.407104    6.204980
     21          6           0        8.656140    3.617536    6.763017
     22          1           0        8.980968    3.189056    7.521586
     23          6           0        7.209337    0.995072   10.903999
     24          1           0        7.243593    0.545792   11.752479
     25          1           0        7.874112    0.624832   10.319170
     26          1           0        7.379610    1.931072   11.030893
     27          6           0       11.211774    5.821504    4.267876
     28          1           0       11.572521    4.932928    4.304859
     29          1           0       11.643778    6.314048    3.566836
     30          1           0       11.360398    6.262464    5.106986
     31          7           0        5.874834    0.814528   10.306020
     32          8           0        7.303978    5.576563    3.386193
     33          8           0        9.824057    5.755027    4.009650
     34          1           0        6.491451    5.358080    3.188784
     35          6           0       11.625734    3.489158    8.897037
     36          6           0       11.799321    4.840243    8.824879
     37          1           0       11.333829    5.398848    9.405271
     38          6           0       12.684164    5.393856    7.871531
     39          6           0       12.895367    6.789120    7.750719
     40          1           0       12.443058    7.374848    8.313851
     41          6           0       13.756273    7.278336    6.816602
     42          1           0       13.881943    8.196864    6.744115
     43          6           0       14.450900    6.418048    5.966807
     44          1           0       15.035548    6.766656    5.332174
     45          6           0       14.279507    5.076032    6.059348
     46          1           0       14.754396    4.512768    5.493257
     47          6           0       13.388097    4.521920    7.004971
     48          6           0       13.186172    3.129984    7.116085
     49          1           0       13.649195    2.551744    6.553445
     50          6           0       12.324882    2.624128    8.035244
     51          1           0       12.196412    1.704768    8.095239
     52          8           0        9.413483    3.682848   10.235176
     53          8           0       11.304968    2.659072   11.327088
     54          8           0       10.131317    1.509414    9.570298
     55         16           0       10.537122    2.790195   10.108447
     56          8           0        3.560232    2.189824    5.300286
     57          1           0        4.022351    2.146560    4.620450
     58          1           0        3.325427    3.020160    5.397922
     59          8           0        4.825874    4.922944    2.761915
     60          1           0        4.705227    4.293120    2.368577
     61          1           0        4.096599    5.366400    2.843607
 ---------------------------------------------------------------------
 Rotational constants (GHZ):      0.1356477      0.0772839      0.0516543
 Leave Link  202 at Mon Jan 18 08:31:29 2021, MaxMem=  5368709120 cpu:         0.0
 (Enter /usr/local/bin/G09/G09d//g09/l301.exe)
 Standard basis: 6-311+G(d) (5D, 7F)
 Ernie: Thresh=  0.10000D-02 Tol=  0.10000D-05 Strict=F.
   837 basis functions,  1373 primitive gaussians,   871 cartesian basis functions
   128 alpha electrons      128 beta electrons
       nuclear repulsion energy      3776.8843146181 Hartrees.
 IExCor= 4033 DFT=T Ex+Corr=M06HF ExCW=0 ScaHFX=  1.000000
 ScaDFX=  1.000000  1.000000  1.000000  1.000000 ScalE2=  1.000000  1.000000
 IRadAn=      0 IRanWt=     -1 IRanGd=            0 ICorTp=0 IEmpDi=  4
 NAtoms=   61 NActive=   61 NUniq=   61 SFac= 1.00D+00 NAtFMM=   60 NAOKFM=T Big=T
 Integral buffers will be    131072 words long.
 Raffenetti 2 integral format.
 Two-electron integral symmetry is turned off.
 Leave Link  301 at Mon Jan 18 08:31:29 2021, MaxMem=  5368709120 cpu:         0.9
 (Enter /usr/local/bin/G09/G09d//g09/l302.exe)
 NPDir=0 NMtPBC=     1 NCelOv=     1 NCel=       1 NClECP=     1 NCelD=      1
         NCelK=      1 NCelE2=     1 NClLst=     1 CellRange=     0.0.
 One-electron integrals computed using PRISM.
 NBasis=   837 RedAO= T EigKep=  1.14D-06  NBF=   837
 NBsUse=   827 1.00D-06 EigRej=  8.99D-07 NBFU=   827
 Precomputing XC quadrature grid using
 IXCGrd= 4 IRadAn=           0 IRanWt=          -1 IRanGd=           0 AccXCQ= 0.00D+00.
 Generated NRdTot=       0 NPtTot=           0 NUsed=           0 NTot=          32
 NSgBfM=   853   853   853   853   853 MxSgAt=    61 MxSgA2=    61.
 Leave Link  302 at Mon Jan 18 08:31:34 2021, MaxMem=  5368709120 cpu:        34.0
 (Enter /usr/local/bin/G09/G09d//g09/l303.exe)
 DipDrv:  MaxL=1.
 Leave Link  303 at Mon Jan 18 08:31:34 2021, MaxMem=  5368709120 cpu:         2.4
 (Enter /usr/local/bin/G09/G09d//g09/l401.exe)
 ExpMin= 4.05D-02 ExpMax= 9.34D+04 ExpMxC= 3.17D+03 IAcc=2 IRadAn=         4 AccDes= 0.00D+00
 Harris functional with IExCor= 1009 and IRadAn=       4 diagonalized for initial guess.
 HarFok:  IExCor= 1009 AccDes= 0.00D+00 IRadAn=         4 IDoV= 1 UseB2=F ITyADJ=14
 ICtDFT=  3500011 ScaDFX=  1.000000  1.000000  1.000000  1.000000
 FoFCou: FMM=F IPFlag=           0 FMFlag=      100000 FMFlg1=        2001
         NFxFlg=           0 DoJE=T BraDBF=F KetDBF=T FulRan=T
         wScrn=  0.000000 ICntrl=     500 IOpCl=  0 I1Cent=   200000004 NGrid=           0
         NMat0=    1 NMatS0=      1 NMatT0=    0 NMatD0=    1 NMtDS0=    0 NMtDT0=    0
 Symmetry not used in FoFCou.
 Harris En= -1947.02327971623    
 JPrj=0 DoOrth=F DoCkMO=F.
 Leave Link  401 at Mon Jan 18 08:31:42 2021, MaxMem=  5368709120 cpu:        60.1
 (Enter /usr/local/bin/G09/G09d//g09/l502.exe)
 Closed shell SCF:
 Using DIIS extrapolation, IDIIS=  1040.
 Two-electron integral symmetry not used.
 IVT=     2306789 IEndB=     2306789 NGot=  5368709120 MDV=  5367178484
 LenX=  5367178484 LenY=  5366418972
 Requested convergence on RMS density matrix=1.00D-08 within 128 cycles.
 Requested convergence on MAX density matrix=1.00D-06.
 Requested convergence on             energy=1.00D-06.
 No special actions if energy rises.
 Fock matrices will be formed incrementally for  20 cycles.

 Cycle   1  Pass 1  IDiag  1:
 FoFJK:  IHMeth= 1 ICntrl=       0 DoSepK=F KAlg= 0 I1Cent=   0 FoldK=F
 IRaf= 800000000 NMat=   1 IRICut=       1 DoRegI=T DoRafI=F ISym2E= 0.
 FoFCou: FMM=T IPFlag=           0 FMFlag=      100000 FMFlg1=        2001
         NFxFlg=           0 DoJE=F BraDBF=F KetDBF=F FulRan=T
         wScrn=  0.000000 ICntrl=       0 IOpCl=  0 I1Cent=           0 NGrid=           0
         NMat0=    1 NMatS0=      1 NMatT0=    0 NMatD0=    1 NMtDS0=    0 NMtDT0=    0
 Symmetry not used in FoFCou.
 FMM levels:  10  Number of levels for PrismC:   9
 E= -1946.34682595133    
 DIIS: error= 4.24D-02 at cycle   1 NSaved=   1.
 NSaved= 1 IEnMin= 1 EnMin= -1946.34682595133     IErMin= 1 ErrMin= 4.24D-02
 ErrMax= 4.24D-02  0.00D+00 EMaxC= 1.00D-01 BMatC= 1.93D+00 BMatP= 1.93D+00
 IDIUse=3 WtCom= 5.76D-01 WtEn= 4.24D-01
 Coeff-Com:  0.100D+01
 Coeff-En:   0.100D+01
 Coeff:      0.100D+01
 Gap=     0.278 Goal=   None    Shift=    0.000
 GapD=    0.278 DampG=1.000 DampE=0.500 DampFc=0.5000 IDamp=-1.
 Damping current iteration by 5.00D-01
 RMSDP=1.16D-01 MaxDP=1.70D+01              OVMax= 1.81D-01

 Cycle   2  Pass 1  IDiag  1:
 RMSU=  3.22D-02    CP:  1.48D+00
 E= -1947.07663892265     Delta-E=       -0.729812971314 Rises=F Damp=T
 DIIS: error= 8.81D-03 at cycle   2 NSaved=   2.
 NSaved= 2 IEnMin= 2 EnMin= -1947.07663892265     IErMin= 2 ErrMin= 8.81D-03
 ErrMax= 8.81D-03  0.00D+00 EMaxC= 1.00D-01 BMatC= 1.99D-01 BMatP= 1.93D+00
 IDIUse=3 WtCom= 9.12D-01 WtEn= 8.81D-02
 Coeff-Com: -0.211D+00 0.121D+01
 Coeff-En:   0.000D+00 0.100D+01
 Coeff:     -0.192D+00 0.119D+01
 Gap=     0.326 Goal=   None    Shift=    0.000
 RMSDP=1.98D-02 MaxDP=4.38D+00 DE=-7.30D-01 OVMax= 1.05D-01

 Cycle   3  Pass 1  IDiag  1:
 RMSU=  1.47D-02    CP:  1.61D+00  9.18D-01
 E= -1947.71902826657     Delta-E=       -0.642389343924 Rises=F Damp=F
 DIIS: error= 6.22D-03 at cycle   3 NSaved=   3.
 NSaved= 3 IEnMin= 3 EnMin= -1947.71902826657     IErMin= 3 ErrMin= 6.22D-03
 ErrMax= 6.22D-03  0.00D+00 EMaxC= 1.00D-01 BMatC= 2.76D-02 BMatP= 1.99D-01
 IDIUse=3 WtCom= 9.38D-01 WtEn= 6.22D-02
 Coeff-Com: -0.103D+00 0.323D+00 0.780D+00
 Coeff-En:   0.000D+00 0.000D+00 0.100D+01
 Coeff:     -0.962D-01 0.303D+00 0.793D+00
 Gap=     0.265 Goal=   None    Shift=    0.000
 RMSDP=7.32D-03 MaxDP=8.91D-01 DE=-6.42D-01 OVMax= 3.57D-02

 Cycle   4  Pass 1  IDiag  1:
 RMSU=  5.37D-03    CP:  1.62D+00  1.07D+00  9.05D-01
 E= -1947.73754605592     Delta-E=       -0.018517789347 Rises=F Damp=F
 DIIS: error= 2.12D-03 at cycle   4 NSaved=   4.
 NSaved= 4 IEnMin= 4 EnMin= -1947.73754605592     IErMin= 4 ErrMin= 2.12D-03
 ErrMax= 2.12D-03  0.00D+00 EMaxC= 1.00D-01 BMatC= 4.51D-03 BMatP= 2.76D-02
 IDIUse=3 WtCom= 9.79D-01 WtEn= 2.12D-02
 Coeff-Com: -0.123D-01 0.176D-01 0.294D+00 0.701D+00
 Coeff-En:   0.000D+00 0.000D+00 0.584D-02 0.994D+00
 Coeff:     -0.120D-01 0.173D-01 0.288D+00 0.707D+00
 Gap=     0.265 Goal=   None    Shift=    0.000
 RMSDP=2.69D-03 MaxDP=2.86D-01 DE=-1.85D-02 OVMax= 1.07D-02

 Cycle   5  Pass 1  IDiag  1:
 RMSU=  1.20D-03    CP:  1.60D+00  1.01D+00  9.35D-01  8.45D-01
 E= -1947.74122602220     Delta-E=       -0.003679966285 Rises=F Damp=F
 DIIS: error= 7.73D-04 at cycle   5 NSaved=   5.
 NSaved= 5 IEnMin= 5 EnMin= -1947.74122602220     IErMin= 5 ErrMin= 7.73D-04
 ErrMax= 7.73D-04  0.00D+00 EMaxC= 1.00D-01 BMatC= 2.79D-04 BMatP= 4.51D-03
 IDIUse=3 WtCom= 9.92D-01 WtEn= 7.73D-03
 Coeff-Com:  0.396D-02-0.177D-01 0.366D-01 0.231D+00 0.746D+00
 Coeff-En:   0.000D+00 0.000D+00 0.000D+00 0.000D+00 0.100D+01
 Coeff:      0.393D-02-0.175D-01 0.363D-01 0.229D+00 0.748D+00
 Gap=     0.265 Goal=   None    Shift=    0.000
 RMSDP=5.67D-04 MaxDP=8.64D-02 DE=-3.68D-03 OVMax= 3.94D-03

 Cycle   6  Pass 1  IDiag  1:
 RMSU=  4.37D-04    CP:  1.60D+00  1.01D+00  9.52D-01  8.38D-01  9.88D-01
 E= -1947.74151187455     Delta-E=       -0.000285852351 Rises=F Damp=F
 DIIS: error= 1.73D-04 at cycle   6 NSaved=   6.
 NSaved= 6 IEnMin= 6 EnMin= -1947.74151187455     IErMin= 6 ErrMin= 1.73D-04
 ErrMax= 1.73D-04  0.00D+00 EMaxC= 1.00D-01 BMatC= 2.63D-05 BMatP= 2.79D-04
 IDIUse=3 WtCom= 9.98D-01 WtEn= 1.73D-03
 Coeff-Com:  0.179D-02-0.469D-02-0.265D-01-0.418D-01 0.153D+00 0.918D+00
 Coeff-En:   0.000D+00 0.000D+00 0.000D+00 0.000D+00 0.000D+00 0.100D+01
 Coeff:      0.179D-02-0.468D-02-0.264D-01-0.418D-01 0.153D+00 0.918D+00
 Gap=     0.266 Goal=   None    Shift=    0.000
 RMSDP=1.52D-04 MaxDP=2.25D-02 DE=-2.86D-04 OVMax= 2.27D-03

 Cycle   7  Pass 1  IDiag  1:
 RMSU=  1.20D-04    CP:  1.60D+00  1.01D+00  9.55D-01  8.44D-01  1.04D+00
                    CP:  1.01D+00
 E= -1947.74155494258     Delta-E=       -0.000043068027 Rises=F Damp=F
 DIIS: error= 9.29D-05 at cycle   7 NSaved=   7.
 NSaved= 7 IEnMin= 7 EnMin= -1947.74155494258     IErMin= 7 ErrMin= 9.29D-05
 ErrMax= 9.29D-05  0.00D+00 EMaxC= 1.00D-01 BMatC= 3.88D-06 BMatP= 2.63D-05
 IDIUse=1 WtCom= 1.00D+00 WtEn= 0.00D+00
 Coeff-Com:  0.272D-04 0.600D-03-0.128D-01-0.413D-01-0.413D-01 0.258D+00
 Coeff-Com:  0.837D+00
 Coeff:      0.272D-04 0.600D-03-0.128D-01-0.413D-01-0.413D-01 0.258D+00
 Coeff:      0.837D+00
 Gap=     0.266 Goal=   None    Shift=    0.000
 RMSDP=8.18D-05 MaxDP=8.69D-03 DE=-4.31D-05 OVMax= 7.57D-04

 Cycle   8  Pass 1  IDiag  1:
 RMSU=  5.58D-05    CP:  1.60D+00  1.01D+00  9.55D-01  8.39D-01  1.06D+00
                    CP:  1.11D+00  1.02D+00
 E= -1947.74156223741     Delta-E=       -0.000007294833 Rises=F Damp=F
 DIIS: error= 3.30D-05 at cycle   8 NSaved=   8.
 NSaved= 8 IEnMin= 8 EnMin= -1947.74156223741     IErMin= 8 ErrMin= 3.30D-05
 ErrMax= 3.30D-05  0.00D+00 EMaxC= 1.00D-01 BMatC= 6.15D-07 BMatP= 3.88D-06
 IDIUse=1 WtCom= 1.00D+00 WtEn= 0.00D+00
 Coeff-Com: -0.247D-03 0.809D-03 0.442D-03-0.538D-02-0.299D-01-0.646D-01
 Coeff-Com:  0.220D+00 0.879D+00
 Coeff:     -0.247D-03 0.809D-03 0.442D-03-0.538D-02-0.299D-01-0.646D-01
 Coeff:      0.220D+00 0.879D+00
 Gap=     0.266 Goal=   None    Shift=    0.000
 RMSDP=3.79D-05 MaxDP=3.81D-03 DE=-7.29D-06 OVMax= 4.17D-04

 Cycle   9  Pass 1  IDiag  1:
 RMSU=  2.40D-05    CP:  1.60D+00  1.01D+00  9.54D-01  8.38D-01  1.06D+00
                    CP:  1.08D+00  1.20D+00  1.17D+00
 E= -1947.74156365339     Delta-E=       -0.000001415973 Rises=F Damp=F
 DIIS: error= 1.36D-05 at cycle   9 NSaved=   9.
 NSaved= 9 IEnMin= 9 EnMin= -1947.74156365339     IErMin= 9 ErrMin= 1.36D-05
 ErrMax= 1.36D-05  0.00D+00 EMaxC= 1.00D-01 BMatC= 1.03D-07 BMatP= 6.15D-07
 IDIUse=1 WtCom= 1.00D+00 WtEn= 0.00D+00
 Coeff-Com: -0.296D-04 0.363D-04 0.226D-02 0.535D-02 0.113D-02-0.560D-01
 Coeff-Com: -0.978D-01 0.178D+00 0.967D+00
 Coeff:     -0.296D-04 0.363D-04 0.226D-02 0.535D-02 0.113D-02-0.560D-01
 Coeff:     -0.978D-01 0.178D+00 0.967D+00
 Gap=     0.267 Goal=   None    Shift=    0.000
 RMSDP=1.68D-05 MaxDP=1.82D-03 DE=-1.42D-06 OVMax= 2.00D-04

 Cycle  10  Pass 1  IDiag  1:
 RMSU=  8.86D-06    CP:  1.60D+00  1.01D+00  9.54D-01  8.38D-01  1.06D+00
                    CP:  1.08D+00  1.23D+00  1.37D+00  9.16D-01
 E= -1947.74156395542     Delta-E=       -0.000000302037 Rises=F Damp=F
 DIIS: error= 5.97D-06 at cycle  10 NSaved=  10.
 NSaved=10 IEnMin=10 EnMin= -1947.74156395542     IErMin=10 ErrMin= 5.97D-06
 ErrMax= 5.97D-06  0.00D+00 EMaxC= 1.00D-01 BMatC= 2.21D-08 BMatP= 1.03D-07
 IDIUse=1 WtCom= 1.00D+00 WtEn= 0.00D+00
 Coeff-Com:  0.398D-04-0.137D-03 0.737D-03 0.258D-02 0.508D-02-0.933D-02
 Coeff-Com: -0.673D-01-0.759D-01 0.324D+00 0.820D+00
 Coeff:      0.398D-04-0.137D-03 0.737D-03 0.258D-02 0.508D-02-0.933D-02
 Coeff:     -0.673D-01-0.759D-01 0.324D+00 0.820D+00
 Gap=     0.267 Goal=   None    Shift=    0.000
 RMSDP=7.46D-06 MaxDP=6.49D-04 DE=-3.02D-07 OVMax= 8.24D-05

 Cycle  11  Pass 1  IDiag  1:
 RMSU=  4.18D-06    CP:  1.60D+00  1.01D+00  9.54D-01  8.37D-01  1.06D+00
                    CP:  1.08D+00  1.25D+00  1.42D+00  1.06D+00  9.81D-01
 E= -1947.74156401006     Delta-E=       -0.000000054641 Rises=F Damp=F
 DIIS: error= 2.48D-06 at cycle  11 NSaved=  11.
 NSaved=11 IEnMin=11 EnMin= -1947.74156401006     IErMin=11 ErrMin= 2.48D-06
 ErrMax= 2.48D-06  0.00D+00 EMaxC= 1.00D-01 BMatC= 3.60D-09 BMatP= 2.21D-08
 IDIUse=1 WtCom= 1.00D+00 WtEn= 0.00D+00
 Coeff-Com:  0.136D-04-0.313D-04-0.276D-03-0.615D-03 0.787D-03 0.916D-02
 Coeff-Com:  0.744D-02-0.521D-01-0.142D+00 0.180D+00 0.997D+00
 Coeff:      0.136D-04-0.313D-04-0.276D-03-0.615D-03 0.787D-03 0.916D-02
 Coeff:      0.744D-02-0.521D-01-0.142D+00 0.180D+00 0.997D+00
 Gap=     0.267 Goal=   None    Shift=    0.000
 RMSDP=3.33D-06 MaxDP=3.01D-04 DE=-5.46D-08 OVMax= 5.36D-05

 Cycle  12  Pass 1  IDiag  1:
 RMSU=  1.63D-06    CP:  1.60D+00  1.01D+00  9.54D-01  8.37D-01  1.06D+00
                    CP:  1.08D+00  1.26D+00  1.43D+00  1.10D+00  1.15D+00
                    CP:  1.05D+00
 E= -1947.74156402332     Delta-E=       -0.000000013255 Rises=F Damp=F
 DIIS: error= 1.20D-06 at cycle  12 NSaved=  12.
 NSaved=12 IEnMin=12 EnMin= -1947.74156402332     IErMin=12 ErrMin= 1.20D-06
 ErrMax= 1.20D-06  0.00D+00 EMaxC= 1.00D-01 BMatC= 5.38D-10 BMatP= 3.60D-09
 IDIUse=1 WtCom= 1.00D+00 WtEn= 0.00D+00
 Coeff-Com: -0.459D-05 0.171D-04-0.160D-03-0.499D-03-0.508D-03 0.319D-02
 Coeff-Com:  0.121D-01 0.419D-03-0.823D-01-0.785D-01 0.220D+00 0.926D+00
 Coeff:     -0.459D-05 0.171D-04-0.160D-03-0.499D-03-0.508D-03 0.319D-02
 Coeff:      0.121D-01 0.419D-03-0.823D-01-0.785D-01 0.220D+00 0.926D+00
 Gap=     0.267 Goal=   None    Shift=    0.000
 RMSDP=8.46D-07 MaxDP=1.05D-04 DE=-1.33D-08 OVMax= 2.11D-05

 Cycle  13  Pass 1  IDiag  1:
 RMSU=  4.16D-07    CP:  1.60D+00  1.01D+00  9.54D-01  8.37D-01  1.06D+00
                    CP:  1.08D+00  1.26D+00  1.43D+00  1.10D+00  1.16D+00
                    CP:  1.18D+00  1.16D+00
 E= -1947.74156402510     Delta-E=       -0.000000001779 Rises=F Damp=F
 DIIS: error= 5.41D-07 at cycle  13 NSaved=  13.
 NSaved=13 IEnMin=13 EnMin= -1947.74156402510     IErMin=13 ErrMin= 5.41D-07
 ErrMax= 5.41D-07  0.00D+00 EMaxC= 1.00D-01 BMatC= 9.22D-11 BMatP= 5.38D-10
 IDIUse=1 WtCom= 1.00D+00 WtEn= 0.00D+00
 Coeff-Com: -0.406D-05 0.962D-05 0.208D-04 0.226D-04-0.279D-03-0.143D-02
 Coeff-Com:  0.147D-02 0.113D-01 0.927D-02-0.522D-01-0.154D+00 0.171D+00
 Coeff-Com:  0.101D+01
 Coeff:     -0.406D-05 0.962D-05 0.208D-04 0.226D-04-0.279D-03-0.143D-02
 Coeff:      0.147D-02 0.113D-01 0.927D-02-0.522D-01-0.154D+00 0.171D+00
 Coeff:      0.101D+01
 Gap=     0.267 Goal=   None    Shift=    0.000
 RMSDP=5.21D-07 MaxDP=1.06D-04 DE=-1.78D-09 OVMax= 1.18D-05

 Cycle  14  Pass 1  IDiag  1:
 RMSU=  2.62D-07    CP:  1.60D+00  1.01D+00  9.54D-01  8.37D-01  1.06D+00
                    CP:  1.08D+00  1.26D+00  1.43D+00  1.10D+00  1.16D+00
                    CP:  1.20D+00  1.30D+00  1.17D+00
 E= -1947.74156402558     Delta-E=       -0.000000000477 Rises=F Damp=F
 DIIS: error= 1.70D-07 at cycle  14 NSaved=  14.
 NSaved=14 IEnMin=14 EnMin= -1947.74156402558     IErMin=14 ErrMin= 1.70D-07
 ErrMax= 1.70D-07  0.00D+00 EMaxC= 1.00D-01 BMatC= 1.61D-11 BMatP= 9.22D-11
 IDIUse=1 WtCom= 1.00D+00 WtEn= 0.00D+00
 Coeff-Com: -0.449D-06 0.418D-06 0.244D-04 0.635D-04-0.313D-04-0.860D-03
 Coeff-Com: -0.826D-03 0.340D-02 0.118D-01-0.605D-02-0.720D-01-0.665D-01
 Coeff-Com:  0.306D+00 0.825D+00
 Coeff:     -0.449D-06 0.418D-06 0.244D-04 0.635D-04-0.313D-04-0.860D-03
 Coeff:     -0.826D-03 0.340D-02 0.118D-01-0.605D-02-0.720D-01-0.665D-01
 Coeff:      0.306D+00 0.825D+00
 Gap=     0.267 Goal=   None    Shift=    0.000
 RMSDP=1.52D-07 MaxDP=1.84D-05 DE=-4.77D-10 OVMax= 4.25D-06

 Cycle  15  Pass 1  IDiag  1:
 RMSU=  7.84D-08    CP:  1.60D+00  1.01D+00  9.54D-01  8.37D-01  1.06D+00
                    CP:  1.08D+00  1.26D+00  1.43D+00  1.10D+00  1.17D+00
                    CP:  1.20D+00  1.32D+00  1.31D+00  1.16D+00
 E= -1947.74156402572     Delta-E=       -0.000000000141 Rises=F Damp=F
 DIIS: error= 6.49D-08 at cycle  15 NSaved=  15.
 NSaved=15 IEnMin=15 EnMin= -1947.74156402572     IErMin=15 ErrMin= 6.49D-08
 ErrMax= 6.49D-08  0.00D+00 EMaxC= 1.00D-01 BMatC= 2.99D-12 BMatP= 1.61D-11
 IDIUse=1 WtCom= 1.00D+00 WtEn= 0.00D+00
 Coeff-Com:  0.850D-06-0.194D-05 0.102D-05 0.806D-05 0.484D-04 0.846D-04
 Coeff-Com: -0.401D-03-0.167D-02 0.399D-03 0.102D-01 0.174D-01-0.533D-01
 Coeff-Com: -0.151D+00 0.200D+00 0.978D+00
 Coeff:      0.850D-06-0.194D-05 0.102D-05 0.806D-05 0.484D-04 0.846D-04
 Coeff:     -0.401D-03-0.167D-02 0.399D-03 0.102D-01 0.174D-01-0.533D-01
 Coeff:     -0.151D+00 0.200D+00 0.978D+00
 Gap=     0.267 Goal=   None    Shift=    0.000
 RMSDP=8.36D-08 MaxDP=1.13D-05 DE=-1.41D-10 OVMax= 1.80D-06

 Cycle  16  Pass 1  IDiag  1:
 RMSU=  5.03D-08    CP:  1.60D+00  1.01D+00  9.54D-01  8.37D-01  1.06D+00
                    CP:  1.08D+00  1.26D+00  1.43D+00  1.10D+00  1.16D+00
                    CP:  1.20D+00  1.33D+00  1.33D+00  1.31D+00  1.12D+00
 E= -1947.74156402521     Delta-E=        0.000000000511 Rises=F Damp=F
 DIIS: error= 2.82D-08 at cycle  16 NSaved=  16.
 NSaved=16 IEnMin=15 EnMin= -1947.74156402572     IErMin=16 ErrMin= 2.82D-08
 ErrMax= 2.82D-08  0.00D+00 EMaxC= 1.00D-01 BMatC= 3.77D-13 BMatP= 2.99D-12
 IDIUse=1 WtCom= 1.00D+00 WtEn= 0.00D+00
 Coeff-Com:  0.273D-06-0.531D-06-0.300D-05-0.671D-05 0.157D-04 0.132D-03
 Coeff-Com:  0.542D-04-0.828D-03-0.157D-02 0.300D-02 0.136D-01-0.259D-02
 Coeff-Com: -0.729D-01-0.588D-01 0.196D+00 0.924D+00
 Coeff:      0.273D-06-0.531D-06-0.300D-05-0.671D-05 0.157D-04 0.132D-03
 Coeff:      0.542D-04-0.828D-03-0.157D-02 0.300D-02 0.136D-01-0.259D-02
 Coeff:     -0.729D-01-0.588D-01 0.196D+00 0.924D+00
 Gap=     0.267 Goal=   None    Shift=    0.000
 RMSDP=2.49D-08 MaxDP=2.24D-06 DE= 5.11D-10 OVMax= 6.41D-07

 Cycle  17  Pass 1  IDiag  1:
 RMSU=  1.66D-08    CP:  1.60D+00  1.01D+00  9.54D-01  8.37D-01  1.06D+00
                    CP:  1.08D+00  1.26D+00  1.43D+00  1.10D+00  1.16D+00
                    CP:  1.20D+00  1.33D+00  1.34D+00  1.31D+00  1.29D+00
                    CP:  1.17D+00
 E= -1947.74156402560     Delta-E=       -0.000000000397 Rises=F Damp=F
 DIIS: error= 1.05D-08 at cycle  17 NSaved=  17.
 NSaved=17 IEnMin=15 EnMin= -1947.74156402572     IErMin=17 ErrMin= 1.05D-08
 ErrMax= 1.05D-08  0.00D+00 EMaxC= 1.00D-01 BMatC= 9.44D-14 BMatP= 3.77D-13
 IDIUse=1 WtCom= 1.00D+00 WtEn= 0.00D+00
 Coeff-Com: -0.813D-07 0.204D-06-0.119D-05-0.396D-05-0.442D-05 0.253D-04
 Coeff-Com:  0.103D-03 0.386D-04-0.665D-03-0.103D-02 0.129D-02 0.972D-02
 Coeff-Com:  0.511D-02-0.583D-01-0.142D+00 0.294D+00 0.892D+00
 Coeff:     -0.813D-07 0.204D-06-0.119D-05-0.396D-05-0.442D-05 0.253D-04
 Coeff:      0.103D-03 0.386D-04-0.665D-03-0.103D-02 0.129D-02 0.972D-02
 Coeff:      0.511D-02-0.583D-01-0.142D+00 0.294D+00 0.892D+00
 Gap=     0.267 Goal=   None    Shift=    0.000
 RMSDP=3.16D-08 MaxDP=2.92D-06 DE=-3.97D-10 OVMax= 2.93D-07

 Cycle  18  Pass 1  IDiag  1:
 RMSU=  2.23D-08    CP:  1.60D+00  1.01D+00  9.54D-01  8.37D-01  1.06D+00
                    CP:  1.08D+00  1.26D+00  1.43D+00  1.10D+00  1.16D+00
                    CP:  1.20D+00  1.32D+00  1.34D+00  1.30D+00  1.23D+00
                    CP:  1.37D+00  1.22D+00
 E= -1947.74156402549     Delta-E=        0.000000000111 Rises=F Damp=F
 DIIS: error= 6.27D-09 at cycle  18 NSaved=  18.
 NSaved=18 IEnMin=15 EnMin= -1947.74156402572     IErMin=18 ErrMin= 6.27D-09
 ErrMax= 6.27D-09  0.00D+00 EMaxC= 1.00D-01 BMatC= 1.18D-14 BMatP= 9.44D-14
 IDIUse=1 WtCom= 1.00D+00 WtEn= 0.00D+00
 Coeff-Com: -0.540D-07 0.114D-06 0.247D-06 0.255D-06-0.277D-05-0.164D-04
 Coeff-Com:  0.130D-04 0.135D-03 0.134D-03-0.626D-03-0.190D-02 0.207D-02
 Coeff-Com:  0.123D-01 0.218D-02-0.570D-01-0.975D-01 0.160D+00 0.981D+00
 Coeff:     -0.540D-07 0.114D-06 0.247D-06 0.255D-06-0.277D-05-0.164D-04
 Coeff:      0.130D-04 0.135D-03 0.134D-03-0.626D-03-0.190D-02 0.207D-02
 Coeff:      0.123D-01 0.218D-02-0.570D-01-0.975D-01 0.160D+00 0.981D+00
 Gap=     0.267 Goal=   None    Shift=    0.000
 RMSDP=2.17D-08 MaxDP=3.03D-06 DE= 1.11D-10 OVMax= 8.60D-08

 Cycle  19  Pass 1  IDiag  1:
 RMSU=  1.36D-08    CP:  1.60D+00  1.01D+00  9.54D-01  8.37D-01  1.06D+00
                    CP:  1.08D+00  1.26D+00  1.43D+00  1.10D+00  1.16D+00
                    CP:  1.20D+00  1.32D+00  1.35D+00  1.29D+00  1.20D+00
                    CP:  1.46D+00  1.51D+00  1.48D+00
 E= -1947.74156402537     Delta-E=        0.000000000117 Rises=F Damp=F
 DIIS: error= 2.37D-09 at cycle  19 NSaved=  19.
 NSaved=19 IEnMin=15 EnMin= -1947.74156402572     IErMin=19 ErrMin= 2.37D-09
 ErrMax= 2.37D-09  0.00D+00 EMaxC= 1.00D-01 BMatC= 2.56D-15 BMatP= 1.18D-14
 IDIUse=1 WtCom= 1.00D+00 WtEn= 0.00D+00
 Large coefficients: NSaved= 19 BigCof=    0.00 CofMax=   10.00 Det=-7.15D-15
 Inversion failed.  Reducing to 18 matrices.
 Large coefficients: NSaved= 18 BigCof=    0.00 CofMax=   10.00 Det=-7.61D-15
 Inversion failed.  Reducing to 17 matrices.
 Large coefficients: NSaved= 17 BigCof=    0.00 CofMax=   10.00 Det=-7.69D-15
 Inversion failed.  Reducing to 16 matrices.
 Large coefficients: NSaved= 16 BigCof=    0.00 CofMax=   10.00 Det=-7.72D-15
 Inversion failed.  Reducing to 15 matrices.
 Coeff-Com: -0.324D-06-0.329D-05-0.107D-05 0.156D-04 0.549D-04-0.447D-04
 Coeff-Com: -0.455D-03-0.384D-03 0.180D-02 0.729D-02 0.228D-02-0.587D-01
 Coeff-Com: -0.657D-01 0.261D+00 0.852D+00
 Coeff:     -0.324D-06-0.329D-05-0.107D-05 0.156D-04 0.549D-04-0.447D-04
 Coeff:     -0.455D-03-0.384D-03 0.180D-02 0.729D-02 0.228D-02-0.587D-01
 Coeff:     -0.657D-01 0.261D+00 0.852D+00
 Gap=     0.267 Goal=   None    Shift=    0.000
 RMSDP=3.02D-08 MaxDP=3.83D-06 DE= 1.17D-10 OVMax= 3.45D-08

 Cycle  20  Pass 1  IDiag  1:
 RMSU=  1.90D-08    CP:  1.60D+00  1.01D+00  9.54D-01  8.37D-01  1.06D+00
                    CP:  1.08D+00  1.26D+00  1.43D+00  1.10D+00  1.16D+00
                    CP:  1.20D+00  1.33D+00  1.35D+00  1.30D+00  1.18D+00
                    CP:  1.56D+00  1.76D+00  1.80D+00  1.59D+00
 E= -1947.74156402561     Delta-E=       -0.000000000236 Rises=F Damp=F
 DIIS: error= 2.19D-09 at cycle  20 NSaved=  16.
 NSaved=16 IEnMin=11 EnMin= -1947.74156402572     IErMin=16 ErrMin= 2.19D-09
 ErrMax= 2.19D-09  0.00D+00 EMaxC= 1.00D-01 BMatC= 1.23D-15 BMatP= 2.56D-15
 IDIUse=1 WtCom= 1.00D+00 WtEn= 0.00D+00
 Large coefficients: NSaved= 16 BigCof=    0.00 CofMax=   10.00 Det=-1.95D-15
 Inversion failed.  Reducing to 15 matrices.
 Coeff-Com: -0.529D-06-0.807D-06-0.182D-05 0.139D-04 0.221D-04-0.472D-04
 Coeff-Com: -0.239D-03-0.278D-03 0.273D-02 0.539D-02-0.154D-01-0.424D-01
 Coeff-Com:  0.329D-02 0.347D+00 0.700D+00
 Coeff:     -0.529D-06-0.807D-06-0.182D-05 0.139D-04 0.221D-04-0.472D-04
 Coeff:     -0.239D-03-0.278D-03 0.273D-02 0.539D-02-0.154D-01-0.424D-01
 Coeff:      0.329D-02 0.347D+00 0.700D+00
 Gap=     0.267 Goal=   None    Shift=    0.000
 RMSDP=2.95D-08 MaxDP=3.11D-06 DE=-2.36D-10 OVMax= 1.21D-08

 Cycle  21  Pass 1  IDiag  1:
 Restarting incremental Fock formation.
 E= -1947.74156402636     Delta-E=       -0.000000000749 Rises=F Damp=F
 DIIS: error= 4.82D-08 at cycle  21 NSaved=  16.
 NSaved=16 IEnMin=16 EnMin= -1947.74156402636     IErMin=15 ErrMin= 2.19D-09
 ErrMax= 4.82D-08  0.00D+00 EMaxC= 1.00D-01 BMatC= 6.78D-13 BMatP= 1.23D-15
 IDIUse=1 WtCom= 1.00D+00 WtEn= 0.00D+00
 Large coefficients: NSaved= 16 BigCof=    0.00 CofMax=   10.00 Det=-1.96D-15
 Inversion failed.  Reducing to 15 matrices.
 Coeff-Com: -0.604D-06-0.468D-05 0.780D-05 0.302D-04-0.369D-05-0.236D-03
 Coeff-Com: -0.482D-03 0.249D-02 0.575D-02-0.136D-01-0.422D-01-0.520D-02
 Coeff-Com:  0.341D+00 0.710D+00 0.328D-02
 Coeff:     -0.604D-06-0.468D-05 0.780D-05 0.302D-04-0.369D-05-0.236D-03
 Coeff:     -0.482D-03 0.249D-02 0.575D-02-0.136D-01-0.422D-01-0.520D-02
 Coeff:      0.341D+00 0.710D+00 0.328D-02
 Gap=     0.267 Goal=   None    Shift=    0.000
 RMSDP=1.41D-08 MaxDP=1.12D-06 DE=-7.49D-10 OVMax= 7.72D-10

 Cycle  22  Pass 1  IDiag  1:
 RMSU=  1.41D-08    CP:  1.00D+00
 E= -1947.74156402639     Delta-E=       -0.000000000035 Rises=F Damp=F
 DIIS: error= 4.82D-08 at cycle  22 NSaved=  16.
 NSaved=16 IEnMin=16 EnMin= -1947.74156402639     IErMin=14 ErrMin= 2.19D-09
 ErrMax= 4.82D-08  0.00D+00 EMaxC= 1.00D-01 BMatC= 6.74D-13 BMatP= 1.23D-15
 IDIUse=1 WtCom= 1.00D+00 WtEn= 0.00D+00
 Large coefficients: NSaved= 16 BigCof=    0.00 CofMax=   10.00 Det=-8.71D-17
 Inversion failed.  Reducing to 15 matrices.
 Coeff-Com: -0.416D-05 0.519D-05 0.263D-04 0.435D-07-0.212D-03-0.469D-03
 Coeff-Com:  0.242D-02 0.561D-02-0.132D-01-0.415D-01-0.498D-02 0.339D+00
 Coeff-Com:  0.709D+00-0.891D-01 0.926D-01
 Coeff:     -0.416D-05 0.519D-05 0.263D-04 0.435D-07-0.212D-03-0.469D-03
 Coeff:      0.242D-02 0.561D-02-0.132D-01-0.415D-01-0.498D-02 0.339D+00
 Coeff:      0.709D+00-0.891D-01 0.926D-01
 Gap=     0.267 Goal=   None    Shift=    0.000
 RMSDP=2.56D-09 MaxDP=2.23D-07 DE=-3.46D-11 OVMax= 3.41D-10

 SCF Done:  E(RM06HF) =  -1947.74156403     A.U. after   22 cycles
            NFock= 22  Conv=0.26D-08     -V/T= 1.9988
 KE= 1.950173426103D+03 PE=-1.212345256453D+04 EE= 4.448653259778D+03
 Leave Link  502 at Mon Jan 18 09:00:10 2021, MaxMem=  5368709120 cpu:     13659.2
 (Enter /usr/local/bin/G09/G09d//g09/l801.exe)
 DoSCS=F DFT=T ScalE2(SS,OS)=  1.000000  1.000000
 Range of M.O.s used for correlation:     1   827
 NBasis=   837 NAE=   128 NBE=   128 NFC=     0 NFV=     0
 NROrb=    827 NOA=   128 NOB=   128 NVA=   699 NVB=   699

 **** Warning!!: The largest alpha MO coefficient is  0.11944225D+03

 Leave Link  801 at Mon Jan 18 09:00:11 2021, MaxMem=  5368709120 cpu:         0.8
 (Enter /usr/local/bin/G09/G09d//g09/l1002.exe)
 Minotr:  Closed shell wavefunction.
          Direct CPHF calculation.
          Differentiating once with respect to electric field.
                with respect to dipole field.
          Electric field/nuclear overlap derivatives assumed to be zero.
          Requested convergence is 1.0D-08 RMS, and 1.0D-07 maximum.
          NewPWx=F KeepS1=T KeepF1=T KeepIn=T MapXYZ=F SortEE=F KeepMc=T.
          MDV=    5368707801 using IRadAn=       1.
 Generate precomputed XC quadrature information.
          Solving linear equations separately, MaxMat=      72.
          Doing perturbations at frequencies    0.000000    0.072000    0.144000
          There are     9 degrees of freedom in the 1st order CPHF.  IDoFFX=0 NUNeed=     9.
 LinEq1:  Iter=  0 NonCon=     9 RMS=5.30D-02 Max=1.14D+01 NDo=     9
 AX will form     9 AO Fock derivatives at one time.
 FoFJK:  IHMeth= 1 ICntrl=       0 DoSepK=F KAlg= 0 I1Cent=   0 FoldK=F
 IRaf= 800000000 NMat=  18 IRICut=       1 DoRegI=T DoRafI=F ISym2E= 0.
 FoFCou: FMM=T IPFlag=           0 FMFlag=      100000 FMFlg1=        2001
         NFxFlg=           0 DoJE=F BraDBF=F KetDBF=F FulRan=T
         wScrn=  0.000000 ICntrl=       0 IOpCl=  0 I1Cent=           0 NGrid=           0
         NMat0=   18 NMatS0=      9 NMatT0=    0 NMatD0=   18 NMtDS0=    0 NMtDT0=    0
 Symmetry not used in FoFCou.
 FMM levels:  10  Number of levels for PrismC:   9
 LinEq1:  Iter=  1 NonCon=     9 RMS=2.90D-02 Max=6.42D+00 NDo=     9
 LinEq1:  Iter=  2 NonCon=     9 RMS=1.99D-02 Max=3.01D+00 NDo=     9
 LinEq1:  Iter=  3 NonCon=     9 RMS=9.67D-03 Max=9.82D-01 NDo=     9
 LinEq1:  Iter=  4 NonCon=     9 RMS=5.38D-03 Max=5.87D-01 NDo=     9
 LinEq1:  Iter=  5 NonCon=     9 RMS=2.63D-03 Max=1.74D-01 NDo=     9
 LinEq1:  Iter=  6 NonCon=     9 RMS=1.48D-03 Max=1.66D-01 NDo=     9
 LinEq1:  Iter=  7 NonCon=     9 RMS=6.10D-04 Max=5.80D-02 NDo=     9
 LinEq1:  Iter=  8 NonCon=     9 RMS=3.76D-04 Max=6.11D-02 NDo=     9
 LinEq1:  Iter=  9 NonCon=     9 RMS=1.94D-04 Max=1.67D-02 NDo=     9
 LinEq1:  Iter= 10 NonCon=     9 RMS=7.77D-05 Max=7.91D-03 NDo=     9
 LinEq1:  Iter= 11 NonCon=     9 RMS=4.56D-05 Max=2.74D-03 NDo=     9
 LinEq1:  Iter= 12 NonCon=     9 RMS=2.24D-05 Max=1.47D-03 NDo=     9
 LinEq1:  Iter= 13 NonCon=     9 RMS=1.08D-05 Max=8.07D-04 NDo=     9
 LinEq1:  Iter= 14 NonCon=     9 RMS=5.95D-06 Max=7.40D-04 NDo=     9
 LinEq1:  Iter= 15 NonCon=     9 RMS=2.92D-06 Max=2.16D-04 NDo=     9
 LinEq1:  Iter= 16 NonCon=     9 RMS=1.55D-06 Max=1.61D-04 NDo=     9
 LinEq1:  Iter= 17 NonCon=     9 RMS=8.07D-07 Max=8.12D-05 NDo=     9
 LinEq1:  Iter= 18 NonCon=     9 RMS=3.71D-07 Max=3.94D-05 NDo=     9
 LinEq1:  Iter= 19 NonCon=     9 RMS=2.04D-07 Max=1.82D-05 NDo=     9
 LinEq1:  Iter= 20 NonCon=     9 RMS=9.73D-08 Max=9.72D-06 NDo=     9
 LinEq1:  Iter= 21 NonCon=     7 RMS=4.80D-08 Max=3.84D-06 NDo=     9
 LinEq1:  Iter= 22 NonCon=     6 RMS=2.33D-08 Max=2.18D-06 NDo=     7
 LinEq1:  Iter= 23 NonCon=     3 RMS=1.27D-08 Max=1.09D-06 NDo=     6
 LinEq1:  Iter= 24 NonCon=     3 RMS=6.95D-09 Max=6.65D-07 NDo=     3
 LinEq1:  Iter= 25 NonCon=     3 RMS=4.43D-09 Max=2.04D-07 NDo=     3
 LinEq1:  Iter= 26 NonCon=     3 RMS=4.51D-09 Max=2.06D-07 NDo=     3
 LinEq1:  Iter= 27 NonCon=     3 RMS=2.85D-09 Max=1.92D-07 NDo=     3
 LinEq1:  Iter= 28 NonCon=     0 RMS=1.95D-09 Max=9.34D-08 NDo=     3
 Linear equations converged to 1.000D-08 1.000D-07 after    28 iterations.
 FullF1:  Do perturbations    1 to     9.
 SCF Polarizability for W=    0.000000:
                1             2             3 
      1  0.369773D+03
      2  0.100417D+03  0.321974D+03
      3 -0.774338D+02 -0.114929D+03  0.351883D+03
 Isotropic polarizability for W=    0.000000      347.88 Bohr**3.
 SCF Polarizability for W=    0.072000:
                1             2             3 
      1  0.404662D+03
      2  0.126424D+03  0.354011D+03
      3 -0.104794D+03 -0.143730D+03  0.390226D+03
 Isotropic polarizability for W=    0.072000      382.97 Bohr**3.
 SCF Polarizability for W=    0.144000:
                1             2             3 
      1  0.158124D+03
      2 -0.138680D+03  0.139144D+03
      3  0.209369D+03  0.138418D+03  0.918912D+02
 Isotropic polarizability for W=    0.144000      129.72 Bohr**3.
 SCF Static Hyperpolarizability:
 K=  1 block:
                1 
      1 -0.161354D+04
 K=  2 block:
                1             2 
      1 -0.160337D+04
      2 -0.148223D+04 -0.139561D+04
 K=  3 block:
                1             2             3 
      1  0.184176D+04
      2  0.168415D+04  0.152136D+04
      3 -0.195254D+04 -0.167019D+04  0.182005D+04
 SCF Beta(-W,W;0) for W=    0.072000:
 K=  1 block:
                1             2             3 
      1 -0.328801D+04
      2 -0.319084D+04 -0.299879D+04
      3  0.365062D+04  0.343090D+04 -0.397215D+04
 K=  2 block:
                1             2             3 
      1 -0.322234D+04
      2 -0.297675D+04 -0.279578D+04
      3  0.335717D+04  0.309899D+04 -0.344415D+04
 K=  3 block:
                1             2             3 
      1  0.369180D+04
      2  0.336389D+04  0.305840D+04
      3 -0.384990D+04 -0.340705D+04  0.378492D+04
 SCF Beta(W,W;-2W) for W=    0.072000:
 K=  1 block:
                1             2             3 
      1  0.131295D+05
      2  0.127757D+05  0.119275D+05
      3 -0.147275D+05 -0.131491D+05  0.145584D+05
 K=  2 block:
                1             2             3 
      1  0.125895D+05
      2  0.122969D+05  0.113061D+05
      3 -0.141492D+05 -0.125031D+05  0.139354D+05
 K=  3 block:
                1             2             3 
      1 -0.144811D+05
      2 -0.141434D+05 -0.130270D+05
      3  0.161332D+05  0.143399D+05 -0.159159D+05
 SCF Beta(-W,W;0) for W=    0.144000:
 K=  1 block:
                1             2             3 
      1 -0.279838D+05
      2 -0.259790D+05 -0.245819D+05
      3  0.294294D+05  0.281974D+05 -0.326182D+05
 K=  2 block:
                1             2             3 
      1 -0.255007D+05
      2 -0.242560D+05 -0.238335D+05
      3  0.281681D+05  0.279934D+05 -0.330142D+05
 K=  3 block:
                1             2             3 
      1  0.280717D+05
      2  0.274242D+05  0.275724D+05
      3 -0.317805D+05 -0.322206D+05  0.378339D+05
 End of Minotr F.D. properties on file   721 Mask=      31 NFrqRd=     2 NDeriv=     1 ND12= 1 LenFil=      94:
 Frequencies=    0.000000    0.072000
 Property number 1 -- Alpha(-w,w) frequency  1    0.000000:
                 1             2             3 
      1   0.369773D+03  0.100417D+03 -0.774338D+02
      2   0.100417D+03  0.321974D+03 -0.114929D+03
      3  -0.774338D+02 -0.114929D+03  0.351883D+03
 Property number 1 -- Alpha(-w,w) frequency  2    0.072000:
                 1             2             3 
      1   0.404662D+03  0.126424D+03 -0.104794D+03
      2   0.126424D+03  0.354011D+03 -0.143730D+03
      3  -0.104794D+03 -0.143730D+03  0.390226D+03
 Property number 5 -- Beta(-w,w,0) frequency  1    0.000000:
                 1 
      1  -0.161354D+04
      2  -0.160337D+04
      3  -0.148223D+04
      4   0.184176D+04
      5   0.168415D+04
      6  -0.195254D+04
      7  -0.160337D+04
      8  -0.148223D+04
      9  -0.139561D+04
     10   0.168415D+04
     11   0.152136D+04
     12  -0.167019D+04
     13   0.184176D+04
     14   0.168415D+04
     15   0.152136D+04
     16  -0.195254D+04
     17  -0.167019D+04
     18   0.182005D+04
 Property number 5 -- Beta(-w,w,0) frequency  2    0.072000:
                 1 
      1  -0.328801D+04
      2  -0.319084D+04
      3  -0.299879D+04
      4   0.365062D+04
      5   0.343090D+04
      6  -0.397215D+04
      7  -0.322234D+04
      8  -0.297675D+04
      9  -0.279578D+04
     10   0.335717D+04
     11   0.309899D+04
     12  -0.344415D+04
     13   0.369180D+04
     14   0.336389D+04
     15   0.305840D+04
     16  -0.384990D+04
     17  -0.340705D+04
     18   0.378492D+04
 Property number 6 -- Beta(w,w,-2w) frequency  1    0.000000:
                 1 
      1  -0.161354D+04
      2  -0.160337D+04
      3  -0.148223D+04
      4   0.184176D+04
      5   0.168415D+04
      6  -0.195254D+04
      7  -0.160337D+04
      8  -0.148223D+04
      9  -0.139561D+04
     10   0.168415D+04
     11   0.152136D+04
     12  -0.167019D+04
     13   0.184176D+04
     14   0.168415D+04
     15   0.152136D+04
     16  -0.195254D+04
     17  -0.167019D+04
     18   0.182005D+04
 Property number 6 -- Beta(w,w,-2w) frequency  2    0.072000:
                 1 
      1   0.131295D+05
      2   0.127757D+05
      3   0.119275D+05
      4  -0.147275D+05
      5  -0.131491D+05
      6   0.145584D+05
      7   0.125895D+05
      8   0.122969D+05
      9   0.113061D+05
     10  -0.141492D+05
     11  -0.125031D+05
     12   0.139354D+05
     13  -0.144811D+05
     14  -0.141434D+05
     15  -0.130270D+05
     16   0.161332D+05
     17   0.143399D+05
     18  -0.159159D+05
 End of Minotr F.D. properties file   722 does not exist.
 End of Minotr F.D. properties file   788 does not exist.
 Leave Link 1002 at Mon Jan 18 12:21:03 2021, MaxMem=  5368709120 cpu:     96404.2
 (Enter /usr/local/bin/G09/G09d//g09/l601.exe)
 Copying SCF densities to generalized density rwf, IOpCl= 0 IROHF=0.

 **********************************************************************

            Population analysis using the SCF density.

 **********************************************************************

 Alpha  occ. eigenvalues --  -91.22513 -20.23022 -20.22011 -20.20624 -20.19067
 Alpha  occ. eigenvalues --  -20.10234 -20.10208 -20.09138 -15.39531 -11.09871
 Alpha  occ. eigenvalues --  -11.07550 -11.03500 -11.03113 -11.02735 -11.02067
 Alpha  occ. eigenvalues --  -11.01983 -10.99937 -10.98902 -10.98142 -10.97874
 Alpha  occ. eigenvalues --  -10.96578 -10.96482 -10.96277 -10.95990 -10.95301
 Alpha  occ. eigenvalues --  -10.95041 -10.94802 -10.94593 -10.94561 -10.94339
 Alpha  occ. eigenvalues --  -10.94275 -10.94116 -10.93976 -10.93829  -8.65989
 Alpha  occ. eigenvalues --   -6.62223  -6.62204  -6.62083  -1.41366  -1.36782
 Alpha  occ. eigenvalues --   -1.33366  -1.32207  -1.30898  -1.29439  -1.16206
 Alpha  occ. eigenvalues --   -1.15445  -1.12896  -1.11212  -1.10286  -1.09049
 Alpha  occ. eigenvalues --   -1.04802  -1.03692  -1.01239  -0.99518  -0.98132
 Alpha  occ. eigenvalues --   -0.97752  -0.95291  -0.94469  -0.93950  -0.92693
 Alpha  occ. eigenvalues --   -0.89421  -0.88867  -0.85799  -0.84620  -0.83818
 Alpha  occ. eigenvalues --   -0.83795  -0.81517  -0.81101  -0.80786  -0.79220
 Alpha  occ. eigenvalues --   -0.76875  -0.75062  -0.74669  -0.73729  -0.72573
 Alpha  occ. eigenvalues --   -0.72007  -0.70933  -0.70129  -0.69811  -0.69463
 Alpha  occ. eigenvalues --   -0.67581  -0.66365  -0.66056  -0.65840  -0.64150
 Alpha  occ. eigenvalues --   -0.63991  -0.63741  -0.63604  -0.62982  -0.62764
 Alpha  occ. eigenvalues --   -0.61422  -0.61016  -0.60371  -0.60168  -0.59689
 Alpha  occ. eigenvalues --   -0.59282  -0.59162  -0.58549  -0.58448  -0.58016
 Alpha  occ. eigenvalues --   -0.57874  -0.56552  -0.56459  -0.55440  -0.54841
 Alpha  occ. eigenvalues --   -0.53809  -0.53482  -0.52734  -0.50971  -0.50566
 Alpha  occ. eigenvalues --   -0.49085  -0.48922  -0.48786  -0.48018  -0.47578
 Alpha  occ. eigenvalues --   -0.47430  -0.46026  -0.45622  -0.41959  -0.41322
 Alpha  occ. eigenvalues --   -0.40962  -0.40207  -0.39040  -0.36314  -0.35847
 Alpha  occ. eigenvalues --   -0.34377  -0.31635  -0.31462
 Alpha virt. eigenvalues --   -0.04807  -0.02231  -0.02001  -0.01390  -0.00065
 Alpha virt. eigenvalues --    0.01441   0.01610   0.02480   0.02723   0.02970
 Alpha virt. eigenvalues --    0.03182   0.03452   0.03823   0.03958   0.04406
 Alpha virt. eigenvalues --    0.05091   0.05392   0.05533   0.05875   0.06161
 Alpha virt. eigenvalues --    0.06271   0.06563   0.07043   0.07304   0.07705
 Alpha virt. eigenvalues --    0.08094   0.08426   0.08667   0.08902   0.09025
 Alpha virt. eigenvalues --    0.09371   0.09622   0.09738   0.10191   0.10630
 Alpha virt. eigenvalues --    0.10746   0.10996   0.11394   0.11765   0.11885
 Alpha virt. eigenvalues --    0.12320   0.12654   0.12981   0.13062   0.13528
 Alpha virt. eigenvalues --    0.13799   0.14197   0.14318   0.14505   0.15017
 Alpha virt. eigenvalues --    0.15175   0.15418   0.15603   0.16057   0.16372
 Alpha virt. eigenvalues --    0.16663   0.16948   0.17303   0.17616   0.17976
 Alpha virt. eigenvalues --    0.18109   0.18240   0.18662   0.18767   0.19260
 Alpha virt. eigenvalues --    0.19308   0.19710   0.20169   0.20394   0.20538
 Alpha virt. eigenvalues --    0.20913   0.21020   0.21081   0.21266   0.21444
 Alpha virt. eigenvalues --    0.21542   0.21743   0.22237   0.22406   0.22556
 Alpha virt. eigenvalues --    0.22767   0.22956   0.23166   0.23530   0.23608
 Alpha virt. eigenvalues --    0.23735   0.23859   0.24090   0.24275   0.24707
 Alpha virt. eigenvalues --    0.24925   0.25188   0.25350   0.25423   0.25773
 Alpha virt. eigenvalues --    0.26120   0.26127   0.26527   0.26829   0.27181
 Alpha virt. eigenvalues --    0.27501   0.27681   0.27898   0.28100   0.28156
 Alpha virt. eigenvalues --    0.28549   0.28637   0.28869   0.29043   0.29432
 Alpha virt. eigenvalues --    0.29631   0.29860   0.30031   0.30279   0.30422
 Alpha virt. eigenvalues --    0.30770   0.30949   0.31139   0.31244   0.31674
 Alpha virt. eigenvalues --    0.31970   0.32121   0.32534   0.32584   0.32960
 Alpha virt. eigenvalues --    0.33002   0.33369   0.33643   0.34063   0.34145
 Alpha virt. eigenvalues --    0.34575   0.34814   0.35052   0.35168   0.35502
 Alpha virt. eigenvalues --    0.35690   0.36291   0.36531   0.36825   0.37003
 Alpha virt. eigenvalues --    0.37419   0.37486   0.37885   0.38185   0.38721
 Alpha virt. eigenvalues --    0.39189   0.39246   0.39795   0.39943   0.40097
 Alpha virt. eigenvalues --    0.40217   0.40446   0.40857   0.41045   0.41384
 Alpha virt. eigenvalues --    0.41640   0.42024   0.42164   0.42232   0.42820
 Alpha virt. eigenvalues --    0.42833   0.43148   0.43719   0.43822   0.44295
 Alpha virt. eigenvalues --    0.44880   0.45220   0.45443   0.46043   0.46442
 Alpha virt. eigenvalues --    0.46622   0.46994   0.47494   0.47623   0.48116
 Alpha virt. eigenvalues --    0.48559   0.48741   0.49466   0.50044   0.50405
 Alpha virt. eigenvalues --    0.50762   0.50990   0.51488   0.52313   0.52555
 Alpha virt. eigenvalues --    0.53352   0.54036   0.54765   0.55190   0.55461
 Alpha virt. eigenvalues --    0.56254   0.57003   0.58125   0.58859   0.59007
 Alpha virt. eigenvalues --    0.59339   0.59681   0.60056   0.60512   0.61029
 Alpha virt. eigenvalues --    0.61296   0.62204   0.62301   0.62539   0.63463
 Alpha virt. eigenvalues --    0.63677   0.64450   0.64711   0.65026   0.65377
 Alpha virt. eigenvalues --    0.65683   0.66380   0.66618   0.66695   0.67294
 Alpha virt. eigenvalues --    0.67493   0.67706   0.68298   0.68859   0.69268
 Alpha virt. eigenvalues --    0.69386   0.69963   0.70383   0.70674   0.71279
 Alpha virt. eigenvalues --    0.71793   0.71901   0.72364   0.72660   0.72966
 Alpha virt. eigenvalues --    0.73634   0.73747   0.73950   0.74278   0.74584
 Alpha virt. eigenvalues --    0.75364   0.75688   0.76025   0.76570   0.77215
 Alpha virt. eigenvalues --    0.77301   0.77706   0.77896   0.78299   0.78594
 Alpha virt. eigenvalues --    0.79090   0.79298   0.79875   0.80169   0.80762
 Alpha virt. eigenvalues --    0.81086   0.81354   0.81907   0.82451   0.82819
 Alpha virt. eigenvalues --    0.83469   0.83575   0.83739   0.84182   0.84525
 Alpha virt. eigenvalues --    0.84900   0.85365   0.85525   0.85948   0.86311
 Alpha virt. eigenvalues --    0.86861   0.86890   0.87333   0.88175   0.88518
 Alpha virt. eigenvalues --    0.89206   0.89395   0.89947   0.90164   0.90825
 Alpha virt. eigenvalues --    0.91022   0.91313   0.92034   0.92315   0.92836
 Alpha virt. eigenvalues --    0.92966   0.93447   0.94672   0.95174   0.95412
 Alpha virt. eigenvalues --    0.95928   0.96775   0.97420   0.97710   0.98339
 Alpha virt. eigenvalues --    0.98641   0.99078   0.99585   0.99699   1.00201
 Alpha virt. eigenvalues --    1.00800   1.01238   1.01947   1.02027   1.02605
 Alpha virt. eigenvalues --    1.03312   1.03595   1.04466   1.04699   1.04999
 Alpha virt. eigenvalues --    1.06160   1.06430   1.07093   1.07475   1.08098
 Alpha virt. eigenvalues --    1.08645   1.08758   1.09083   1.09495   1.09614
 Alpha virt. eigenvalues --    1.09995   1.11007   1.11110   1.11544   1.12080
 Alpha virt. eigenvalues --    1.12699   1.13299   1.13728   1.14324   1.14774
 Alpha virt. eigenvalues --    1.14988   1.15241   1.15674   1.16332   1.17267
 Alpha virt. eigenvalues --    1.17630   1.18401   1.18889   1.19078   1.19590
 Alpha virt. eigenvalues --    1.20411   1.21277   1.22100   1.22478   1.22986
 Alpha virt. eigenvalues --    1.23078   1.23828   1.24755   1.24919   1.25737
 Alpha virt. eigenvalues --    1.26401   1.26777   1.27785   1.28084   1.28333
 Alpha virt. eigenvalues --    1.28652   1.29196   1.30201   1.30645   1.31585
 Alpha virt. eigenvalues --    1.32127   1.32664   1.33521   1.34193   1.34587
 Alpha virt. eigenvalues --    1.35333   1.36119   1.36324   1.37357   1.37902
 Alpha virt. eigenvalues --    1.38608   1.38930   1.39622   1.40027   1.40644
 Alpha virt. eigenvalues --    1.41830   1.43475   1.44535   1.45324   1.45629
 Alpha virt. eigenvalues --    1.47054   1.47441   1.47718   1.48787   1.49392
 Alpha virt. eigenvalues --    1.50750   1.51408   1.52461   1.53380   1.53454
 Alpha virt. eigenvalues --    1.55625   1.56131   1.56428   1.59456   1.60115
 Alpha virt. eigenvalues --    1.61002   1.61196   1.61470   1.62521   1.62870
 Alpha virt. eigenvalues --    1.64261   1.64722   1.65188   1.65581   1.66173
 Alpha virt. eigenvalues --    1.66836   1.67262   1.68156   1.68983   1.69556
 Alpha virt. eigenvalues --    1.70320   1.70907   1.71469   1.72621   1.73869
 Alpha virt. eigenvalues --    1.74707   1.74866   1.76118   1.77673   1.77832
 Alpha virt. eigenvalues --    1.79200   1.80094   1.80769   1.82263   1.82917
 Alpha virt. eigenvalues --    1.83567   1.85147   1.85820   1.87178   1.87888
 Alpha virt. eigenvalues --    1.88447   1.88988   1.90299   1.91083   1.92338
 Alpha virt. eigenvalues --    1.93095   1.93493   1.93740   1.93999   1.94429
 Alpha virt. eigenvalues --    1.95346   1.95485   1.96041   1.96556   1.96918
 Alpha virt. eigenvalues --    1.97837   1.97921   1.99088   1.99681   1.99853
 Alpha virt. eigenvalues --    2.00237   2.00967   2.01370   2.02146   2.02936
 Alpha virt. eigenvalues --    2.03802   2.05052   2.06637   2.07822   2.07959
 Alpha virt. eigenvalues --    2.08626   2.10502   2.11025   2.11202   2.12217
 Alpha virt. eigenvalues --    2.13868   2.15377   2.16460   2.19016   2.19280
 Alpha virt. eigenvalues --    2.21752   2.22233   2.23720   2.23999   2.24655
 Alpha virt. eigenvalues --    2.26646   2.27001   2.28354   2.30650   2.31092
 Alpha virt. eigenvalues --    2.33749   2.34082   2.36184   2.37446   2.38394
 Alpha virt. eigenvalues --    2.38487   2.40342   2.40700   2.41452   2.42144
 Alpha virt. eigenvalues --    2.42521   2.43283   2.44753   2.46327   2.46698
 Alpha virt. eigenvalues --    2.47184   2.49644   2.50284   2.52157   2.52675
 Alpha virt. eigenvalues --    2.53341   2.57209   2.59715   2.60164   2.67744
 Alpha virt. eigenvalues --    2.74080   2.74805   2.77442   2.78088   2.78828
 Alpha virt. eigenvalues --    2.79606   2.79843   2.81829   2.83273   2.83898
 Alpha virt. eigenvalues --    2.84154   2.84435   2.84688   2.85420   2.85914
 Alpha virt. eigenvalues --    2.86203   2.86333   2.87745   2.89001   2.89658
 Alpha virt. eigenvalues --    2.90152   2.90543   2.90906   2.91462   2.92995
 Alpha virt. eigenvalues --    2.93388   2.94325   2.95474   2.97265   2.98013
 Alpha virt. eigenvalues --    2.98172   2.98688   2.99661   2.99936   3.00315
 Alpha virt. eigenvalues --    3.01534   3.01926   3.02878   3.03647   3.04165
 Alpha virt. eigenvalues --    3.04412   3.04874   3.05274   3.05372   3.05654
 Alpha virt. eigenvalues --    3.06204   3.07011   3.07339   3.07791   3.08809
 Alpha virt. eigenvalues --    3.11173   3.12460   3.12955   3.14617   3.16123
 Alpha virt. eigenvalues --    3.16825   3.17306   3.17518   3.17912   3.19232
 Alpha virt. eigenvalues --    3.19631   3.21189   3.23399   3.25767   3.26084
 Alpha virt. eigenvalues --    3.27662   3.29572   3.30610   3.33331   3.34212
 Alpha virt. eigenvalues --    3.34582   3.35635   3.36254   3.36886   3.38200
 Alpha virt. eigenvalues --    3.38875   3.40615   3.42208   3.43092   3.45214
 Alpha virt. eigenvalues --    3.48238   3.48843   3.49281   3.49625   3.51903
 Alpha virt. eigenvalues --    3.53181   3.54132   3.55593   3.58152   3.58783
 Alpha virt. eigenvalues --    3.61227   3.62246   3.64347   3.64556   3.68510
 Alpha virt. eigenvalues --    3.69520   3.69896   3.71041   3.71230   3.72467
 Alpha virt. eigenvalues --    3.73768   3.76431   3.77232   3.78739   3.80769
 Alpha virt. eigenvalues --    3.80882   3.82322   3.83190   3.85023   3.85760
 Alpha virt. eigenvalues --    3.86462   3.87984   3.89813   3.90878   3.92418
 Alpha virt. eigenvalues --    3.92704   3.93675   4.00054   4.12283   4.14252
 Alpha virt. eigenvalues --    4.14884   4.15773   4.17977   4.21410   4.22419
 Alpha virt. eigenvalues --    4.24493   4.27511   4.30227   4.33270   4.36643
 Alpha virt. eigenvalues --    4.36946   4.38158   4.46784   4.48226   4.67026
 Alpha virt. eigenvalues --    4.78743   4.82182   4.82743   4.86426   5.07718
 Alpha virt. eigenvalues --    5.10275   5.14325   5.16174   5.21737   5.25881
 Alpha virt. eigenvalues --    5.26542   5.27145   5.29209   5.30288   5.32482
 Alpha virt. eigenvalues --    5.35754   5.37997   5.39010   5.42665   5.44023
 Alpha virt. eigenvalues --    5.50010   5.52399   5.54781   5.60734   5.77265
 Alpha virt. eigenvalues --    5.93698   8.67048  17.70711  17.77629  17.78710
 Alpha virt. eigenvalues --   23.57286  23.59455  23.64991  23.78974  23.81709
 Alpha virt. eigenvalues --   23.83653  23.88649  23.92871  24.01630  24.03203
 Alpha virt. eigenvalues --   24.03406  24.04267  24.07361  24.13955  24.16229
 Alpha virt. eigenvalues --   24.17167  24.17802  24.21857  24.23947  24.24993
 Alpha virt. eigenvalues --   24.26189  24.30163  24.32102  24.32678  24.33084
 Alpha virt. eigenvalues --   35.62246  49.91274  49.92554  50.03068  50.06835
 Alpha virt. eigenvalues --   50.09328  50.11211  50.15563 189.57539
 Electronic spatial extent (au):  <R**2>=         155307.6061
 Charge=              0.0000 electrons
 Dipole moment (field-independent basis, Debye):
    X=            -17.6085    Y=             -3.9790    Z=             -6.4158  Tot=             19.1587
 Quadrupole moment (field-independent basis, Debye-Ang):
   XX=           -440.5128   YY=           -215.7007   ZZ=           -299.8247
   XY=            -61.9430   XZ=           -218.1829   YZ=            -67.5382
 Traceless Quadrupole moment (field-independent basis, Debye-Ang):
   XX=           -121.8334   YY=            102.9787   ZZ=             18.8547
   XY=            -61.9430   XZ=           -218.1829   YZ=            -67.5382
 Octapole moment (field-independent basis, Debye-Ang**2):
  XXX=          -8040.8349  YYY=          -2150.3628  ZZZ=          -5794.0553  XYY=          -1977.0096
  XXY=          -1274.5759  XXZ=          -4500.7893  XZZ=          -4415.8384  YZZ=          -1605.8265
  YYZ=          -1709.8006  XYZ=           -759.1114
 Hexadecapole moment (field-independent basis, Debye-Ang**3):
 XXXX=        -138301.1320 YYYY=         -19530.8684 ZZZZ=         -90416.4758 XXXY=         -25850.0561
 XXXZ=         -76310.2398 YYYX=         -21538.8694 YYYZ=         -14317.8123 ZZZX=         -70891.7899
 ZZZY=         -25129.7747 XXYY=         -22393.5264 XXZZ=         -67003.5041 YYZZ=         -18498.8343
 XXYZ=         -12572.1423 YYXZ=         -15390.9883 ZZXY=         -16726.2446
 N-N= 3.776884314618D+03 E-N=-1.212345256452D+04  KE= 1.950173426103D+03
  Exact polarizability: 369.773 100.417 321.974 -77.434-114.929 351.883
 Approx polarizability: 332.609  53.013 336.676 -52.849 -74.025 343.566
 No NMR shielding tensors so no spin-rotation constants.
 Leave Link  601 at Mon Jan 18 12:21:11 2021, MaxMem=  5368709120 cpu:        13.1
 (Enter /usr/local/bin/G09/G09d//g09/l602.exe)
 FitSet:  NAtFit=    61 NAtPot=    61 NAtFrz=     0 MDM=    65 TotChg=   0.00000
 Breneman (CHELPG) radii used.
 Generate Potential Derived Charges using the Breneman model, NDens= 1.
 Grid spacing= 0.300 Box extension= 2.800
 NStep X,Y,Z=   62     50     52   Total possible points=      161200
 Number of Points to Fit=   30042

 **********************************************************************

            Electrostatic Properties Using The SCF Density

 **********************************************************************

       Atomic Center    1 is at   4.981328  0.071552 10.993252
       Atomic Center    2 is at   5.237190 -0.321152 11.796859
       Atomic Center    3 is at   3.721703 -0.115648 10.538604
       Atomic Center    4 is at   3.115443 -0.622336 11.027606
       Atomic Center    5 is at   3.348624  0.456768  9.338043
       Atomic Center    6 is at   2.486605  0.336960  9.009138
       Atomic Center    7 is at   4.260512  1.200576  8.637825
       Atomic Center    8 is at   4.008560  1.584128  7.828959
       Atomic Center    9 is at   5.554116  1.395680  9.108582
       Atomic Center   10 is at   6.571241  2.139654  8.393078
       Atomic Center   11 is at   7.424292  2.184832  8.762582
       Atomic Center   12 is at   6.352534  2.762240  7.236733
       Atomic Center   13 is at   5.487633  2.713152  6.900267
       Atomic Center   14 is at   7.313628  3.510208  6.440030
       Atomic Center   15 is at   6.859881  4.162080  5.285657
       Atomic Center   16 is at   5.964942  4.086784  5.044526
       Atomic Center   17 is at   7.706735  4.910298  4.500788
       Atomic Center   18 is at   9.054207  5.005312  4.845144
       Atomic Center   19 is at   9.516534  4.350528  5.975355
       Atomic Center   20 is at  10.415511  4.407104  6.204980
       Atomic Center   21 is at   8.656140  3.617536  6.763017
       Atomic Center   22 is at   8.980968  3.189056  7.521586
       Atomic Center   23 is at   7.209337  0.995072 10.903999
       Atomic Center   24 is at   7.243593  0.545792 11.752479
       Atomic Center   25 is at   7.874112  0.624832 10.319170
       Atomic Center   26 is at   7.379610  1.931072 11.030893
       Atomic Center   27 is at  11.211774  5.821504  4.267876
       Atomic Center   28 is at  11.572521  4.932928  4.304859
       Atomic Center   29 is at  11.643778  6.314048  3.566836
       Atomic Center   30 is at  11.360398  6.262464  5.106986
       Atomic Center   31 is at   5.874834  0.814528 10.306020
       Atomic Center   32 is at   7.303978  5.576563  3.386193
       Atomic Center   33 is at   9.824057  5.755027  4.009650
       Atomic Center   34 is at   6.491451  5.358080  3.188784
       Atomic Center   35 is at  11.625734  3.489158  8.897037
       Atomic Center   36 is at  11.799321  4.840243  8.824879
       Atomic Center   37 is at  11.333829  5.398848  9.405271
       Atomic Center   38 is at  12.684164  5.393856  7.871531
       Atomic Center   39 is at  12.895367  6.789120  7.750719
       Atomic Center   40 is at  12.443058  7.374848  8.313851
       Atomic Center   41 is at  13.756273  7.278336  6.816602
       Atomic Center   42 is at  13.881943  8.196864  6.744115
       Atomic Center   43 is at  14.450900  6.418048  5.966807
       Atomic Center   44 is at  15.035548  6.766656  5.332174
       Atomic Center   45 is at  14.279507  5.076032  6.059348
       Atomic Center   46 is at  14.754396  4.512768  5.493257
       Atomic Center   47 is at  13.388097  4.521920  7.004971
       Atomic Center   48 is at  13.186172  3.129984  7.116085
       Atomic Center   49 is at  13.649195  2.551744  6.553445
       Atomic Center   50 is at  12.324882  2.624128  8.035244
       Atomic Center   51 is at  12.196412  1.704768  8.095239
       Atomic Center   52 is at   9.413483  3.682848 10.235176
       Atomic Center   53 is at  11.304968  2.659072 11.327088
       Atomic Center   54 is at  10.131317  1.509414  9.570298
       Atomic Center   55 is at  10.537122  2.790195 10.108447
       Atomic Center   56 is at   3.560232  2.189824  5.300286
       Atomic Center   57 is at   4.022351  2.146560  4.620450
       Atomic Center   58 is at   3.325427  3.020160  5.397922
       Atomic Center   59 is at   4.825874  4.922944  2.761915
       Atomic Center   60 is at   4.705227  4.293120  2.368577
       Atomic Center   61 is at   4.096599  5.366400  2.843607
   30042 points will be used for fitting atomic charges
 Fitting point charges to electrostatic potential
 Charges from ESP fit, RMS=   0.00432 RRMS=   0.10892:
 ESP charges:
               1
     1  C    0.094325
     2  H    0.154849
     3  C   -0.297331
     4  H    0.188734
     5  C    0.127214
     6  H    0.123115
     7  C   -0.461860
     8  H    0.306629
     9  C    0.515756
    10  C   -0.531642
    11  H    0.319893
    12  C    0.049111
    13  H    0.104061
    14  C    0.061838
    15  C   -0.494064
    16  H    0.224722
    17  C    0.387578
    18  C    0.306983
    19  C   -0.365759
    20  H    0.222140
    21  C   -0.052267
    22  H    0.076282
    23  C   -0.022357
    24  H    0.097941
    25  H    0.122238
    26  H    0.114199
    27  C    0.142273
    28  H    0.001876
    29  H    0.053295
    30  H    0.028864
    31  N   -0.182160
    32  O   -0.871810
    33  O   -0.348532
    34  H    0.705027
    35  C   -0.120870
    36  C   -0.189215
    37  H    0.149785
    38  C    0.138118
    39  C   -0.263036
    40  H    0.178802
    41  C   -0.110262
    42  H    0.125009
    43  C   -0.116808
    44  H    0.131560
    45  C   -0.273710
    46  H    0.166403
    47  C    0.202195
    48  C   -0.344424
    49  H    0.189861
    50  C   -0.023434
    51  H    0.114605
    52  O   -0.797143
    53  O   -0.804996
    54  O   -0.809967
    55  S    1.607069
    56  O   -0.974822
    57  H    0.490786
    58  H    0.474978
    59  O   -1.123922
    60  H    0.544187
    61  H    0.538089
 Sum of ESP charges =   0.00000
 ESP charges with hydrogens summed into heavy atoms:
               1
     1  C    0.249174
     3  C   -0.108597
     5  C    0.250329
     7  C   -0.155231
     9  C    0.515756
    10  C   -0.211749
    12  C    0.153172
    14  C    0.061838
    15  C   -0.269343
    17  C    0.387578
    18  C    0.306983
    19  C   -0.143619
    21  C    0.024014
    23  C    0.312022
    27  C    0.226308
    31  N   -0.182160
    32  O   -0.166783
    33  O   -0.348532
    35  C   -0.120870
    36  C   -0.039431
    38  C    0.138118
    39  C   -0.084234
    41  C    0.014747
    43  C    0.014753
    45  C   -0.107307
    47  C    0.202195
    48  C   -0.154563
    50  C    0.091171
    52  O   -0.797143
    53  O   -0.804996
    54  O   -0.809967
    55  S    1.607069
    56  O   -0.009058
    59  O   -0.041647
 Charge=   0.00000 Dipole=   -17.4487    -4.0036    -6.2695 Tot=    18.9682
 -----------------------------------------------------------------

              Electrostatic Properties (Atomic Units)

 -----------------------------------------------------------------
    Center     Electric         -------- Electric Field --------
               Potential          X             Y             Z
 -----------------------------------------------------------------
    1 Atom    -14.667957
    2 Atom     -1.008134
    3 Atom    -14.723800
    4 Atom     -1.030005
    5 Atom    -14.710115
    6 Atom     -1.029334
    7 Atom    -14.722713
    8 Atom     -1.039363
    9 Atom    -14.638583
   10 Atom    -14.760096
   11 Atom     -1.080994
   12 Atom    -14.745541
   13 Atom     -1.066452
   14 Atom    -14.756602
   15 Atom    -14.779229
   16 Atom     -1.078131
   17 Atom    -14.707964
   18 Atom    -14.705100
   19 Atom    -14.794203
   20 Atom     -1.104648
   21 Atom    -14.793128
   22 Atom     -1.115239
   23 Atom    -14.755251
   24 Atom     -1.063866
   25 Atom     -1.083660
   26 Atom     -1.081200
   27 Atom    -14.789762
   28 Atom     -1.125031
   29 Atom     -1.120672
   30 Atom     -1.128850
   31 Atom    -18.238124
   32 Atom    -22.362273
   33 Atom    -22.344557
   34 Atom     -0.984949
   35 Atom    -14.779043
   36 Atom    -14.799818
   37 Atom     -1.119707
   38 Atom    -14.771409
   39 Atom    -14.797189
   40 Atom     -1.109067
   41 Atom    -14.801752
   42 Atom     -1.109727
   43 Atom    -14.800687
   44 Atom     -1.107208
   45 Atom    -14.797734
   46 Atom     -1.105957
   47 Atom    -14.771750
   48 Atom    -14.803577
   49 Atom     -1.111552
   50 Atom    -14.804954
   51 Atom     -1.125655
   52 Atom    -22.457188
   53 Atom    -22.468872
   54 Atom    -22.456393
   55 Atom    -59.096404
   56 Atom    -22.334247
   57 Atom     -0.935161
   58 Atom     -0.935378
   59 Atom    -22.325528
   60 Atom     -0.897062
   61 Atom     -0.917442
 -----------------------------------------------------------------
 Leave Link  602 at Mon Jan 18 12:21:18 2021, MaxMem=  5368709120 cpu:        55.0
 (Enter /usr/local/bin/G09/G09d//g09/l106.exe)
 NDeriv=   3 NFrqRd=  2 NDerD0=   0 MskFDP=      31 MskDFD=      31 MskDF0=       0
 At 1st pt F.D. properties on file   721 Mask=      31 NFrqRd=     2 NDeriv=     1 ND12= 1 LenFil=      94:
 Frequencies=    0.000000    0.072000
 Property number 1 -- Alpha(-w,w) frequency  1    0.000000:
                 1             2             3 
      1   0.369773D+03  0.100417D+03 -0.774338D+02
      2   0.100417D+03  0.321974D+03 -0.114929D+03
      3  -0.774338D+02 -0.114929D+03  0.351883D+03
 Property number 1 -- Alpha(-w,w) frequency  2    0.072000:
                 1             2             3 
      1   0.404662D+03  0.126424D+03 -0.104794D+03
      2   0.126424D+03  0.354011D+03 -0.143730D+03
      3  -0.104794D+03 -0.143730D+03  0.390226D+03
 Property number 5 -- Beta(-w,w,0) frequency  1    0.000000:
                 1 
      1  -0.161354D+04
      2  -0.160337D+04
      3  -0.148223D+04
      4   0.184176D+04
      5   0.168415D+04
      6  -0.195254D+04
      7  -0.160337D+04
      8  -0.148223D+04
      9  -0.139561D+04
     10   0.168415D+04
     11   0.152136D+04
     12  -0.167019D+04
     13   0.184176D+04
     14   0.168415D+04
     15   0.152136D+04
     16  -0.195254D+04
     17  -0.167019D+04
     18   0.182005D+04
 Property number 5 -- Beta(-w,w,0) frequency  2    0.072000:
                 1 
      1  -0.328801D+04
      2  -0.319084D+04
      3  -0.299879D+04
      4   0.365062D+04
      5   0.343090D+04
      6  -0.397215D+04
      7  -0.322234D+04
      8  -0.297675D+04
      9  -0.279578D+04
     10   0.335717D+04
     11   0.309899D+04
     12  -0.344415D+04
     13   0.369180D+04
     14   0.336389D+04
     15   0.305840D+04
     16  -0.384990D+04
     17  -0.340705D+04
     18   0.378492D+04
 Property number 6 -- Beta(w,w,-2w) frequency  1    0.000000:
                 1 
      1  -0.161354D+04
      2  -0.160337D+04
      3  -0.148223D+04
      4   0.184176D+04
[...]
     6         -3.48512745         -4.80479980        -20.75614557
     6         -4.95036667         -3.03891435        -22.01736955
     1         -4.74068496         -2.80932723        -23.74625303
     6         -6.71734327         -1.62188321        -20.73378939
     1         -7.69366640         -0.45284553        -21.60983480
     6        -14.20477555          4.40797350        -19.81222151
     1        -15.53326197          5.57181541        -20.23232843
     1        -12.62770296          5.03512785        -20.45141764
     1        -14.55994725          2.79215802        -20.55560981
     6         -1.20595960         -5.94087588        -24.45848568
     1         -0.77976089         -4.20397209        -24.75970470
     1          0.17829004         -6.99997293        -24.95847480
     1         -2.67937717         -6.37775618        -25.42069296
     7        -14.04339725          4.14282491        -17.04514783
     8         -2.32001006         -6.89497340        -17.01724078
     8         -1.70242125         -6.29565143        -21.85876055
     1         -2.48190775         -6.79248241        -15.39534933
     6         -8.32851111          0.25286997        -27.19153394
     6         -8.44783025         -2.19922287        -27.97762150
     1         -9.92981727         -3.11872394        -27.75566508
     6         -6.32764863         -3.34665024        -29.12841421
     6         -6.34830117         -5.88846213        -29.96638370
     1         -7.79849233         -6.86077373        -29.76704627
     6         -4.26072845         -6.91704978        -31.06249796
     1         -4.29583813         -8.59121870        -31.59538813
     6         -2.07031964         -5.48968691        -31.39353556
     1         -0.65659483         -6.21826265        -32.14417418
     6         -1.98733049         -3.04558563        -30.62771677
     1         -0.52240239         -2.10941281        -30.87321565
     6         -4.09851705         -1.90205215        -29.46043391
     6         -4.05548218          0.63237491        -28.63374769
     1         -2.60073467          1.59408174        -28.85494364
     6         -6.11284539          1.68541719        -27.52097000
     1         -6.05775734          3.35544820        -26.97498494
     8        -12.24001786         -0.17394638        -24.27206379
     8        -12.54735377          2.63786215        -27.84643175
     8         -9.99983186          3.73356454        -24.24505739
    16        -10.99901725          1.71231209        -25.79309241
     8         -7.32701759         -0.96218988        -10.39709671
     1         -5.81391133         -1.02501452        -10.75252014
     1         -7.88389874         -2.50572588        -10.37694982
     8         -2.77864902         -6.61437621        -12.06162059
     1         -2.00901152         -5.64961491        -11.35597659
     1         -3.54640054         -7.59031367        -11.02073671

 Electric dipole moment (dipole orientation):
 (Debye = 10**-18 statcoulomb cm , SI units = C m)
                  (au)            (Debye)         (10**-30 SI)
   Tot        0.753760D+01      0.191587D+02      0.639064D+02
   x          0.000000D+00      0.000000D+00      0.000000D+00
   y          0.000000D+00      0.000000D+00      0.000000D+00
   z          0.753760D+01      0.191587D+02      0.639064D+02

 Dipole polarizability, Alpha (dipole orientation).
 (esu units = cm**3 , SI units = C**2 m**2 J**-1)
 Alpha(0;0):
               (au)            (10**-24 esu)      (10**-40 SI)
   iso        0.347877D+03      0.515500D+02      0.573571D+02
   aniso      0.299356D+03      0.443600D+02      0.493572D+02
   xx         0.365194D+03      0.541161D+02      0.602123D+02
   yx        -0.135465D+03     -0.200738D+02     -0.223351D+02
   yy         0.338047D+03      0.500934D+02      0.557365D+02
   zx        -0.847160D+02     -0.125536D+02     -0.139678D+02
   zy         0.641681D+02      0.950874D+01      0.105799D+02
   zz         0.340388D+03      0.504404D+02      0.561225D+02
 Alpha(-w;w) w=  632.8nm:
                  (au)         (10**-24 esu)      (10**-40 SI)
   iso        0.382966D+03      0.567497D+02      0.631426D+02
   aniso      0.380673D+03      0.564099D+02      0.627645D+02
   xx         0.411108D+03      0.609199D+02      0.677825D+02
   yx        -0.169542D+03     -0.251235D+02     -0.279537D+02
   yy         0.373168D+03      0.552978D+02      0.615271D+02
   zx        -0.108928D+03     -0.161414D+02     -0.179598D+02
   zy         0.841547D+02      0.124704D+02      0.138752D+02
   zz         0.364622D+03      0.540315D+02      0.601181D+02

 First dipole hyperpolarizability, Beta (dipole orientation).
 ||, _|_  parallel and perpendicular components, (z) with respect to z axis,
 vector components x,y,z.  Values do not include the 1/n! factor of 1/2.
 (esu units = statvolt**-1 cm**4 , SI units = C**3 m**3 J**-2)
 Beta(0;0,0):
               (au)            (10**-30 esu)      (10**-50 SI)
   || (z)     0.232431D+04      0.200802D+02      0.745258D+01
   _|_(z)     0.774771D+03      0.669341D+01      0.248419D+01
   x         -0.178494D+05     -0.154205D+03     -0.572317D+02
   y          0.146186D+05      0.126294D+03      0.468726D+02
   z          0.116216D+05      0.100401D+03      0.372629D+02
   ||         0.516669D+04      0.446362D+02      0.165663D+02
   xxx       -0.292396D+04     -0.252607D+02     -0.937526D+01
   xxy        0.232593D+04      0.200942D+02      0.745778D+01
   yxy       -0.187998D+04     -0.162416D+02     -0.602790D+01
   yyy        0.156968D+04      0.135608D+02      0.503297D+01
   xxz        0.194566D+04      0.168090D+02      0.623849D+01
   yxz       -0.157373D+04     -0.135958D+02     -0.504594D+01
   yyz        0.126556D+04      0.109335D+02      0.405786D+01
   zxz       -0.114587D+04     -0.989942D+01     -0.367407D+01
   zyz        0.977260D+03      0.844276D+01      0.313345D+01
   zzz        0.662630D+03      0.572461D+01      0.212463D+01
 Beta(-w;w,0) w=  632.8nm:
                  (au)         (10**-30 esu)      (10**-50 SI)
   || (z)     0.466100D+04      0.402674D+02      0.149448D+02
   _|_(z)     0.160255D+04      0.138448D+02      0.513836D+01
   x         -0.362024D+05     -0.312761D+03     -0.116078D+03
   y          0.295408D+05      0.255210D+03      0.947186D+02
   z          0.233050D+05      0.201337D+03      0.747242D+02
   ||         0.104430D+05      0.902193D+02      0.334840D+02
   xxx       -0.591277D+04     -0.510817D+02     -0.189585D+02
   yxx        0.473856D+04      0.409375D+02      0.151935D+02
   yyx       -0.382888D+04     -0.330786D+02     -0.122768D+02
   zxx        0.383058D+04      0.330932D+02      0.122822D+02
   zyx       -0.309314D+04     -0.267223D+02     -0.991772D+01
   zzx       -0.235497D+04     -0.203451D+02     -0.755089D+01
   xxy        0.472634D+04      0.408319D+02      0.151543D+02
   yxy       -0.383920D+04     -0.331677D+02     -0.123099D+02
   yyy        0.316856D+04      0.273739D+02      0.101595D+02
   zxy       -0.311370D+04     -0.268999D+02     -0.998365D+01
   zyy        0.251275D+04      0.217082D+02      0.805677D+01
   zzy        0.198264D+04      0.171284D+02      0.635705D+01
   xxz        0.390808D+04      0.337628D+02      0.125307D+02
   yxz       -0.318447D+04     -0.275113D+02     -0.102106D+02
   yyz        0.258191D+04      0.223057D+02      0.827853D+01
   zxz       -0.230094D+04     -0.198783D+02     -0.737764D+01
   zyz        0.192453D+04      0.166264D+02      0.617073D+01
   zzz        0.137612D+04      0.118886D+02      0.441232D+01
 Beta(-2w;w,w) w=  632.8nm:
                  (au)         (10**-30 esu)      (10**-50 SI)
   || (z)    -0.186362D+05     -0.161002D+03     -0.597545D+02
   _|_(z)    -0.554459D+04     -0.479009D+02     -0.177780D+02
   x          0.147890D+06      0.127766D+04      0.474190D+03
   y         -0.120359D+06     -0.103981D+04     -0.385914D+03
   z         -0.931811D+05     -0.805012D+03     -0.298772D+03
   ||         0.424455D+05      0.366696D+03      0.136096D+03
   xxx        0.240482D+05      0.207758D+03      0.771073D+02
   yxx       -0.197105D+05     -0.170283D+03     -0.631990D+02
   zxx       -0.146262D+05     -0.126359D+03     -0.468970D+02
   xyx       -0.194619D+05     -0.168136D+03     -0.624018D+02
   yyx        0.158666D+05      0.137075D+03      0.508739D+02
   zyx        0.118098D+05      0.102027D+03      0.378663D+02
   xyy        0.159372D+05      0.137685D+03      0.511004D+02
   yyy       -0.129050D+05     -0.111489D+03     -0.413781D+02
   zyy       -0.972027D+04     -0.839756D+02     -0.311667D+02
   xzx       -0.156781D+05     -0.135446D+03     -0.502695D+02
   yzx        0.128250D+05      0.110798D+03      0.411217D+02
   zzx        0.950677D+04      0.821311D+02      0.304821D+02
   xzy        0.130531D+05      0.112769D+03      0.418530D+02
   yzy       -0.106709D+05     -0.921883D+02     -0.342148D+02
   zzy       -0.783134D+04     -0.676567D+02     -0.251101D+02
   xzz        0.906173D+04      0.782863D+02      0.290552D+02
   yzz       -0.734678D+04     -0.634705D+02     -0.235564D+02
   zzz       -0.537890D+04     -0.464695D+02     -0.172467D+02

 Second dipole hyperpolarizability, Gamma (dipole orientation).
 ||, _|_  isotropic parallel and perpendicular components.
 Values do not include the 1/n! factor of 1/6.
 (esu units = statvolt**-2 cm**5 , SI units = C**4 m**4 J**-3)
 Gamma(0;0,0,0):
               (au)            (10**-36 esu)      (10**-61 SI)
   ||         0.260563D+06      0.131238D+03      0.162471D+03
   _|_        0.868545D+05      0.437460D+02      0.541571D+02
   xxxx       0.285833D+06      0.143965D+03      0.178228D+03
   xxyx      -0.199051D+06     -0.100256D+03     -0.124116D+03
   xxyy       0.169076D+06      0.851582D+02      0.105425D+03
   yxyy      -0.135443D+06     -0.682187D+02     -0.844541D+02
   yyyy       0.147263D+06      0.741717D+02      0.918239D+02
   xxzx      -0.171112D+06     -0.861841D+02     -0.106695D+03
   xxzy       0.136541D+06      0.687714D+02      0.851384D+02
   yxzy      -0.113711D+06     -0.572727D+02     -0.709031D+02
   yyzy       0.959893D+05      0.483469D+02      0.598530D+02
   xxzz       0.123216D+06      0.620604D+02      0.768301D+02
   yxzz      -0.899171D+05     -0.452885D+02     -0.560668D+02
   yyzz       0.917954D+05      0.462345D+02      0.572379D+02
   zxzz      -0.683541D+05     -0.344279D+02     -0.426214D+02
   zyzz       0.586196D+05      0.295249D+02      0.365516D+02
   zzzz       0.101422D+06      0.510834D+02      0.632408D+02
 Gamma(-w;w,0,0) w=  632.8nm:
                  (au)         (10**-36 esu)      (10**-61 SI)
   ||         0.622212D+06      0.313390D+03      0.387973D+03
   _|_        0.204898D+06      0.103201D+03      0.127762D+03
   xxxx       0.707145D+06      0.356167D+03      0.440932D+03
   yxxx      -0.534602D+06     -0.269263D+03     -0.333345D+03
   yyxx       0.439860D+06      0.221544D+03      0.274269D+03
   zxxx      -0.439122D+06     -0.221173D+03     -0.273809D+03
   zyxx       0.351671D+06      0.177126D+03      0.219280D+03
   zzxx       0.300477D+06      0.151341D+03      0.187359D+03
   xxyx      -0.531500D+06     -0.267701D+03     -0.331411D+03
   yxyx       0.439906D+06      0.221567D+03      0.274298D+03
   yyyx      -0.356333D+06     -0.179474D+03     -0.222187D+03
   zxyx       0.352851D+06      0.177720D+03      0.220016D+03
   zyyx      -0.289633D+06     -0.145880D+03     -0.180597D+03
   zzyx      -0.233472D+06     -0.117593D+03     -0.145579D+03
   xxyy       0.440201D+06      0.221716D+03      0.274482D+03
   yxyy      -0.358755D+06     -0.180694D+03     -0.223698D+03
   yyyy       0.334971D+06      0.168715D+03      0.208867D+03
   zxyy      -0.292782D+06     -0.147465D+03     -0.182561D+03
   zyyy       0.243056D+06      0.122420D+03      0.151555D+03
   zzyy       0.214658D+06      0.108117D+03      0.133847D+03
   xxzx      -0.447357D+06     -0.225320D+03     -0.278944D+03
   yxzx       0.361337D+06      0.181994D+03      0.225307D+03
   yyzx      -0.297393D+06     -0.149788D+03     -0.185436D+03
   zxzx       0.294629D+06      0.148396D+03      0.183712D+03
   zyzx      -0.228296D+06     -0.114986D+03     -0.142351D+03
   zzzx      -0.172734D+06     -0.870007D+02     -0.107706D+03
   xxzy       0.359504D+06      0.181071D+03      0.224165D+03
   yxzy      -0.297981D+06     -0.150084D+03     -0.185802D+03
   yyzy       0.248379D+06      0.125101D+03      0.154874D+03
   zxzy      -0.228970D+06     -0.115325D+03     -0.142771D+03
   zyzy       0.208682D+06      0.105107D+03      0.130121D+03
   zzzy       0.145674D+06      0.733717D+02      0.908335D+02
   xxzz       0.303544D+06      0.152886D+03      0.189271D+03
   yxzz      -0.237601D+06     -0.119672D+03     -0.148153D+03
   yyzz       0.215755D+06      0.108669D+03      0.134531D+03
   zxzz      -0.173311D+06     -0.872917D+02     -0.108066D+03
   zyzz       0.145640D+06      0.733546D+02      0.908122D+02
   zzzz       0.173250D+06      0.872609D+02      0.108028D+03
 Gamma(-2w;w,w,0) w=  632.8nm:
                  (au)         (10**-36 esu)      (10**-61 SI)
   ||         0.165876D+07      0.835468D+03      0.103430D+04
   _|_        0.532124D+06      0.268015D+03      0.127762D+03
   xxxx       0.193710D+07      0.975661D+03      0.120786D+04
   yxxx      -0.154580D+07     -0.778572D+03     -0.963865D+03
   zxxx      -0.106103D+07     -0.534408D+03     -0.661592D+03
   xyxx      -0.154646D+07     -0.778907D+03     -0.964279D+03
   yyxx       0.129560D+07      0.652553D+03      0.807855D+03
   zyxx       0.874217D+06      0.440316D+03      0.545107D+03
   xyyx       0.129516D+07      0.652331D+03      0.807580D+03
   yyyx      -0.108094D+07     -0.544438D+03     -0.674009D+03
   zyyx      -0.727482D+06     -0.366411D+03     -0.453613D+03
   xzxx      -0.119170D+07     -0.600223D+03     -0.743070D+03
   yzxx       0.977623D+06      0.492399D+03      0.609585D+03
   zzxx       0.736456D+06      0.370931D+03      0.459209D+03
   xzyx       0.100547D+07      0.506423D+03      0.626947D+03
   yzyx      -0.836824D+06     -0.421483D+03     -0.521792D+03
   zzyx      -0.604764D+06     -0.304601D+03     -0.377094D+03
   xzzx       0.666870D+06      0.335882D+03      0.415819D+03
   yzzx      -0.533085D+06     -0.268499D+03     -0.332399D+03
   zzzx      -0.402113D+06     -0.202532D+03     -0.250733D+03
   xxxy      -0.162619D+07     -0.819064D+03     -0.101399D+04
   yxxy       0.133286D+07      0.671321D+03      0.831089D+03
   zxxy       0.898416D+06      0.452505D+03      0.560197D+03
   xyxy       0.129510D+07      0.652304D+03      0.807546D+03
   yyxy      -0.105782D+07     -0.532791D+03     -0.659590D+03
   zyxy      -0.711238D+06     -0.358229D+03     -0.443484D+03
   xyyy      -0.103056D+07     -0.519061D+03     -0.642592D+03
   yyyy       0.908808D+06      0.457739D+03      0.566676D+03
   zyyy       0.565113D+06      0.284630D+03      0.352370D+03
   xzxy       0.100102D+07      0.504185D+03      0.624176D+03
   yzxy      -0.814966D+06     -0.410474D+03     -0.508162D+03
   zzxy      -0.585258D+06     -0.294777D+03     -0.364930D+03
   xzyy      -0.807908D+06     -0.406919D+03     -0.503761D+03
   yzyy       0.661986D+06      0.333422D+03      0.412774D+03
   zzyy       0.503308D+06      0.253501D+03      0.313832D+03
   xzzy      -0.535673D+06     -0.269802D+03     -0.334013D+03
   yzzy       0.464017D+06      0.233711D+03      0.289332D+03
   zzzy       0.328359D+06      0.165384D+03      0.204744D+03
   xxxz      -0.109804D+07     -0.553048D+03     -0.684668D+03
   yxxz       0.878455D+06      0.442451D+03      0.547750D+03
   zxxz       0.708270D+06      0.356734D+03      0.441633D+03
   xyxz       0.870737D+06      0.438564D+03      0.542938D+03
   yyxz      -0.709031D+06     -0.357117D+03     -0.442108D+03
   zyxz      -0.547120D+06     -0.275568D+03     -0.341150D+03
   xyyz      -0.697743D+06     -0.351432D+03     -0.435069D+03
   yyyz       0.573600D+06      0.288905D+03      0.357662D+03
   zyyz       0.465063D+06      0.234238D+03      0.289984D+03
   xzxz       0.760760D+06      0.383172D+03      0.474363D+03
   yzxz      -0.593648D+06     -0.299002D+03     -0.370162D+03
   zzxz      -0.484866D+06     -0.244212D+03     -0.302332D+03
   xzyz      -0.615286D+06     -0.309901D+03     -0.383654D+03
   yzyz       0.528186D+06      0.266031D+03      0.329344D+03
   zzyz       0.408142D+06      0.205569D+03      0.254492D+03
   xzzz      -0.402578D+06     -0.202766D+03     -0.251023D+03
   yzzz       0.326565D+06      0.164481D+03      0.203626D+03
   zzzz       0.390878D+06      0.196874D+03      0.243727D+03

 ----------------------------------------------------------------------
 1\1\GINC-FLAME1\SP\RM06HF\6-311+G(d)\C25H27N1O7S1\ROOT\19-Jan-2021\0\\
 #p M06HF/6-311+g(d) polar=gamma pop=chelpg density=current NoSymm\\ONL
 _VSNS_0_M06HF\\0,1\C,0,4.981328,0.071552,10.993252\H,0,5.23719,-0.3211
 52,11.796859\C,0,3.721703,-0.115648,10.538604\H,0,3.115443,-0.622336,1
 1.027606\C,0,3.348624,0.456768,9.338043\H,0,2.486605,0.33696,9.009138\
 C,0,4.260512,1.200576,8.637825\H,0,4.00856,1.584128,7.828959\C,0,5.554
 116,1.39568,9.108582\C,0,6.571241,2.139654,8.393078\H,0,7.424292,2.184
 832,8.762582\C,0,6.352534,2.76224,7.236733\H,0,5.487633,2.713152,6.900
 267\C,0,7.313628,3.510208,6.44003\C,0,6.859881,4.16208,5.285657\H,0,5.
 964942,4.086784,5.044526\C,0,7.706735,4.910298,4.500788\C,0,9.054207,5
 .005312,4.845144\C,0,9.516534,4.350528,5.975355\H,0,10.415511,4.407104
 ,6.20498\C,0,8.65614,3.617536,6.763017\H,0,8.980968,3.189056,7.521586\
 C,0,7.209337,0.995072,10.903999\H,0,7.243593,0.545792,11.752479\H,0,7.
 874112,0.624832,10.31917\H,0,7.37961,1.931072,11.030893\C,0,11.211774,
 5.821504,4.267876\H,0,11.572521,4.932928,4.304859\H,0,11.643778,6.3140
 48,3.566836\H,0,11.360398,6.262464,5.106986\N,0,5.874834,0.814528,10.3
 0602\O,0,7.303978,5.576563,3.386193\O,0,9.824057,5.755027,4.00965\H,0,
 6.491451,5.35808,3.188784\C,0,11.625734,3.489158,8.897037\C,0,11.79932
 1,4.840243,8.824879\H,0,11.333829,5.398848,9.405271\C,0,12.684164,5.39
 3856,7.871531\C,0,12.895367,6.78912,7.750719\H,0,12.443058,7.374848,8.
 313851\C,0,13.756273,7.278336,6.816602\H,0,13.881943,8.196864,6.744115
 \C,0,14.4509,6.418048,5.966807\H,0,15.035548,6.766656,5.332174\C,0,14.
 279507,5.076032,6.059348\H,0,14.754396,4.512768,5.493257\C,0,13.388097
 ,4.52192,7.004971\C,0,13.186172,3.129984,7.116085\H,0,13.649195,2.5517
 44,6.553445\C,0,12.324882,2.624128,8.035244\H,0,12.196412,1.704768,8.0
 95239\O,0,9.413483,3.682848,10.235176\O,0,11.304968,2.659072,11.327088
 \O,0,10.131317,1.509414,9.570298\S,0,10.537122,2.790195,10.108447\O,0,
 3.560232,2.189824,5.300286\H,0,4.022351,2.14656,4.62045\H,0,3.325427,3
 .02016,5.397922\O,0,4.825874,4.922944,2.761915\H,0,4.705227,4.29312,2.
 368577\H,0,4.096599,5.3664,2.843607\\Version=EM64L-G09RevD.01\HF=-1947
 .741564\RMSD=2.559e-09\Dipole=-6.9277205,-1.5654552,-2.5241637\Polar=3
 69.7725527,100.4168553,321.9738899,-77.4338145,-114.928704,351.8831195
 \HyperPolar=-1613.5445187,-1603.3667451,-1482.228889,-1395.6103888,184
 1.7629908,1684.145017,1521.3578583,-1952.5440062,-1670.1882632,1820.04
 59514\DQPolar=8527.1637548,-2520.5396099,-6006.6241449,3969.7162453,39
 10.7564168,967.76869,1739.4357186,2969.8518159,-4709.2875345,6293.2077
 678,-209.5920252,3942.8224594,-4730.882804,-3339.2983752,8070.1811792,
 -2173.9723643,4621.5259364,596.166872\Quadrupole=-90.5801771,76.562156
 6,14.0180204,-46.0530805,-162.2136745,-50.2130093\PG=C01 [X(C25H27N1O7
 S1)]\\@


 SEEN ON A WALL AT THE UNIVERSITY OF ILLINOIS AT CHICAGO CIRCLE:

 TO DO IS TO BE  -- SOCRATES
 TO BE IS TO DO  -- SARTRE
 OO BE DO BE DO  -- SINATRA
 Job cpu time:       8 days 15 hours 32 minutes 10.1 seconds.
 File lengths (MBytes):  RWF=   2551 Int=      0 D2E=      0 Chk=    122 Scr=      1
 Normal termination of Gaussian 09 at Tue Jan 19 10:30:25 2021.
Tue Jan 19 10:30:25 -02 2021
