Wed Jan 20 21:21:11 -02 2021
flame4
 Entering Gaussian System, Link 0=/usr/local/bin/G09/G09d/g09/g09
 Initial command:
 /usr/local/bin/G09/G09d//g09/l1.exe "/work/danielmachado/job-23524/Gau-17276.inp" -scrdir="/work/danielmachado/job-23524/"
 Entering Link 1 = /usr/local/bin/G09/G09d//g09/l1.exe PID=     17278.
  
 Copyright (c) 1988,1990,1992,1993,1995,1998,2003,2009,2013,
            Gaussian, Inc.  All Rights Reserved.
  
 This is part of the Gaussian(R) 09 program.  It is based on
 the Gaussian(R) 03 system (copyright 2003, Gaussian, Inc.),
 the Gaussian(R) 98 system (copyright 1998, Gaussian, Inc.),
 the Gaussian(R) 94 system (copyright 1995, Gaussian, Inc.),
 the Gaussian 92(TM) system (copyright 1992, Gaussian, Inc.),
 the Gaussian 90(TM) system (copyright 1990, Gaussian, Inc.),
 the Gaussian 88(TM) system (copyright 1988, Gaussian, Inc.),
 the Gaussian 86(TM) system (copyright 1986, Carnegie Mellon
 University), and the Gaussian 82(TM) system (copyright 1983,
 Carnegie Mellon University). Gaussian is a federally registered
 trademark of Gaussian, Inc.
  
 This software contains proprietary and confidential information,
 including trade secrets, belonging to Gaussian, Inc.
  
 This software is provided under written license and may be
 used, copied, transmitted, or stored only in accord with that
 written license.
  
 The following legend is applicable only to US Government
 contracts under FAR:
  
                    RESTRICTED RIGHTS LEGEND
  
 Use, reproduction and disclosure by the US Government is
 subject to restrictions as set forth in subparagraphs (a)
 and (c) of the Commercial Computer Software - Restricted
 Rights clause in FAR 52.227-19.
  
 Gaussian, Inc.
 340 Quinnipiac St., Bldg. 40, Wallingford CT 06492
  
  
 ---------------------------------------------------------------
 Warning -- This program may not be used in any manner that
 competes with the business of Gaussian, Inc. or will provide
 assistance to any competitor of Gaussian, Inc.  The licensee
 of this program is prohibited from giving any competitor of
 Gaussian, Inc. access to this program.  By using this program,
 the user acknowledges that Gaussian, Inc. is engaged in the
 business of creating and licensing software in the field of
 computational chemistry and represents and warrants to the
 licensee that it is not a competitor of Gaussian, Inc. and that
 it will not use this program in any manner prohibited above.
 ---------------------------------------------------------------
  

 Cite this work as:
 Gaussian 09, Revision D.01,
 M. J. Frisch, G. W. Trucks, H. B. Schlegel, G. E. Scuseria, 
 M. A. Robb, J. R. Cheeseman, G. Scalmani, V. Barone, B. Mennucci, 
 G. A. Petersson, H. Nakatsuji, M. Caricato, X. Li, H. P. Hratchian, 
 A. F. Izmaylov, J. Bloino, G. Zheng, J. L. Sonnenberg, M. Hada, 
 M. Ehara, K. Toyota, R. Fukuda, J. Hasegawa, M. Ishida, T. Nakajima, 
 Y. Honda, O. Kitao, H. Nakai, T. Vreven, J. A. Montgomery, Jr., 
 J. E. Peralta, F. Ogliaro, M. Bearpark, J. J. Heyd, E. Brothers, 
 K. N. Kudin, V. N. Staroverov, T. Keith, R. Kobayashi, J. Normand, 
 K. Raghavachari, A. Rendell, J. C. Burant, S. S. Iyengar, J. Tomasi, 
 M. Cossi, N. Rega, J. M. Millam, M. Klene, J. E. Knox, J. B. Cross, 
 V. Bakken, C. Adamo, J. Jaramillo, R. Gomperts, R. E. Stratmann, 
 O. Yazyev, A. J. Austin, R. Cammi, C. Pomelli, J. W. Ochterski, 
 R. L. Martin, K. Morokuma, V. G. Zakrzewski, G. A. Voth, 
 P. Salvador, J. J. Dannenberg, S. Dapprich, A. D. Daniels, 
 O. Farkas, J. B. Foresman, J. V. Ortiz, J. Cioslowski, 
 and D. J. Fox, Gaussian, Inc., Wallingford CT, 2013.
 
 ******************************************
 Gaussian 09:  EM64L-G09RevD.01 24-Apr-2013
                20-Jan-2021 
 ******************************************
 %nprocshared=8
 Will use up to    8 processors via shared memory.
 %chk=ONL_VSNS_0_PBE1PBE.chk
 %mem=40GB
 -------------------------------------------------------------------
 #p PBE1PBE/6-311+g(d) polar=gamma pop=chelpg density=current NoSymm
 -------------------------------------------------------------------
 1/30=1,38=101,83=1,84=49/1,6;
 2/12=2,15=1,17=6,18=5,40=1/2;
 3/5=4,6=6,7=11,11=2,16=1,25=1,30=1,74=-13/1,2,3;
 4/69=2/1;
 5/5=2,38=5,96=-2,98=1/2;
 8/6=4,10=90,11=11/1;
 10/6=20001,13=10,31=1,60=-2,72=3/2;
 6/7=2,8=2,9=2,10=2,12=2,15=8,20=3,22=-1,28=1/1,2;
 1/38=100,84=49/6(1);
 99/9=1/99;
 3/5=4,6=6,7=11,11=2,14=-3,16=1,25=1,30=1,74=-13/1,2,3;
 4/5=5,16=3,69=2/1;
 5/5=2,38=5,96=-2,98=1/2;
 8/6=4,10=90,11=11/1;
 10/6=20001,13=10,31=1,60=-2,72=3/2;
 6/7=2,8=2,9=2,10=2,12=2,15=8,20=3,22=-1,28=1/1,2;
 1/38=100,84=49/6(-6);
 99/9=1/99;
 Leave Link    1 at Wed Jan 20 21:21:12 2021, MaxMem=  5368709120 cpu:         0.8
 (Enter /usr/local/bin/G09/G09d//g09/l101.exe)
 ------------------
 ONL_VSNS_0_PBE1PBE
 ------------------
 Symbolic Z-matrix:
 Charge =  0 Multiplicity = 1
 C                     4.98133   0.07155   10.99325 
 H                     5.23719  -0.32115   11.79686 
 C                     3.7217   -0.11565   10.5386 
 H                     3.11544  -0.62234   11.02761 
 C                     3.34862   0.45677   9.33804 
 H                     2.4866    0.33696   9.00914 
 C                     4.26051   1.20058   8.63782 
 H                     4.00856   1.58413   7.82896 
 C                     5.55412   1.39568   9.10858 
 C                     6.57124   2.13965   8.39308 
 H                     7.42429   2.18483   8.76258 
 C                     6.35253   2.76224   7.23673 
 H                     5.48763   2.71315   6.90027 
 C                     7.31363   3.51021   6.44003 
 C                     6.85988   4.16208   5.28566 
 H                     5.96494   4.08678   5.04453 
 C                     7.70674   4.9103    4.50079 
 C                     9.05421   5.00531   4.84514 
 C                     9.51653   4.35053   5.97536 
 H                     10.41551   4.4071    6.20498 
 C                     8.65614   3.61754   6.76302 
 H                     8.98097   3.18906   7.52159 
 C                     7.20934   0.99507   10.904 
 H                     7.24359   0.54579   11.75248 
 H                     7.87411   0.62483   10.31917 
 H                     7.37961   1.93107   11.03089 
 C                     11.21177   5.8215    4.26788 
 H                     11.57252   4.93293   4.30486 
 H                     11.64378   6.31405   3.56684 
 H                     11.3604   6.26246   5.10699 
 N                     5.87483   0.81453   10.30602 
 O                     7.30398   5.57656   3.38619 
 O                     9.82406   5.75503   4.00965 
 H                     6.49145   5.35808   3.18878 
 C                     11.62573   3.48916   8.89704 
 C                     11.79932   4.84024   8.82488 
 H                     11.33383   5.39885   9.40527 
 C                     12.68416   5.39386   7.87153 
 C                     12.89537   6.78912   7.75072 
 H                     12.44306   7.37485   8.31385 
 C                     13.75627   7.27834   6.8166 
 H                     13.88194   8.19686   6.74412 
 C                     14.4509   6.41805   5.96681 
 H                     15.03555   6.76666   5.33217 
 C                     14.27951   5.07603   6.05935 
 H                     14.7544   4.51277   5.49326 
 C                     13.3881   4.52192   7.00497 
 C                     13.18617   3.12998   7.11608 
 H                     13.6492   2.55174   6.55344 
 C                     12.32488   2.62413   8.03524 
 H                     12.19641   1.70477   8.09524 
 O                     9.41348   3.68285   10.23518 
 O                     11.30497   2.65907   11.32709 
 O                     10.13132   1.50941   9.5703 
 S                     10.53712   2.7902    10.10845 
 O                     3.56023   2.18982   5.30029 
 H                     4.02235   2.14656   4.62045 
 H                     3.32543   3.02016   5.39792 
 O                     4.82587   4.92294   2.76192 
 H                     4.70523   4.29312   2.36858 
 H                     4.0966    5.3664    2.84361 
 
 NAtoms=     61 NQM=       61 NQMF=       0 NMMI=      0 NMMIF=      0
                NMic=       0 NMicF=      0.
                    Isotopes and Nuclear Properties:
 (Nuclear quadrupole moments (NQMom) in fm**2, nuclear magnetic moments (NMagM)
  in nuclear magnetons)

  Atom         1           2           3           4           5           6           7           8           9          10
 IAtWgt=          12           1          12           1          12           1          12           1          12          12
 AtmWgt=  12.0000000   1.0078250  12.0000000   1.0078250  12.0000000   1.0078250  12.0000000   1.0078250  12.0000000  12.0000000
 NucSpn=           0           1           0           1           0           1           0           1           0           0
 AtZEff=   0.0000000   0.0000000   0.0000000   0.0000000   0.0000000   0.0000000   0.0000000   0.0000000   0.0000000   0.0000000
 NQMom=    0.0000000   0.0000000   0.0000000   0.0000000   0.0000000   0.0000000   0.0000000   0.0000000   0.0000000   0.0000000
 NMagM=    0.0000000   2.7928460   0.0000000   2.7928460   0.0000000   2.7928460   0.0000000   2.7928460   0.0000000   0.0000000
 AtZNuc=   6.0000000   1.0000000   6.0000000   1.0000000   6.0000000   1.0000000   6.0000000   1.0000000   6.0000000   6.0000000

  Atom        11          12          13          14          15          16          17          18          19          20
 IAtWgt=           1          12           1          12          12           1          12          12          12           1
 AtmWgt=   1.0078250  12.0000000   1.0078250  12.0000000  12.0000000   1.0078250  12.0000000  12.0000000  12.0000000   1.0078250
 NucSpn=           1           0           1           0           0           1           0           0           0           1
 AtZEff=   0.0000000   0.0000000   0.0000000   0.0000000   0.0000000   0.0000000   0.0000000   0.0000000   0.0000000   0.0000000
 NQMom=    0.0000000   0.0000000   0.0000000   0.0000000   0.0000000   0.0000000   0.0000000   0.0000000   0.0000000   0.0000000
 NMagM=    2.7928460   0.0000000   2.7928460   0.0000000   0.0000000   2.7928460   0.0000000   0.0000000   0.0000000   2.7928460
 AtZNuc=   1.0000000   6.0000000   1.0000000   6.0000000   6.0000000   1.0000000   6.0000000   6.0000000   6.0000000   1.0000000

  Atom        21          22          23          24          25          26          27          28          29          30
 IAtWgt=          12           1          12           1           1           1          12           1           1           1
 AtmWgt=  12.0000000   1.0078250  12.0000000   1.0078250   1.0078250   1.0078250  12.0000000   1.0078250   1.0078250   1.0078250
 NucSpn=           0           1           0           1           1           1           0           1           1           1
 AtZEff=   0.0000000   0.0000000   0.0000000   0.0000000   0.0000000   0.0000000   0.0000000   0.0000000   0.0000000   0.0000000
 NQMom=    0.0000000   0.0000000   0.0000000   0.0000000   0.0000000   0.0000000   0.0000000   0.0000000   0.0000000   0.0000000
 NMagM=    0.0000000   2.7928460   0.0000000   2.7928460   2.7928460   2.7928460   0.0000000   2.7928460   2.7928460   2.7928460
 AtZNuc=   6.0000000   1.0000000   6.0000000   1.0000000   1.0000000   1.0000000   6.0000000   1.0000000   1.0000000   1.0000000

  Atom        31          32          33          34          35          36          37          38          39          40
 IAtWgt=          14          16          16           1          12          12           1          12          12           1
 AtmWgt=  14.0030740  15.9949146  15.9949146   1.0078250  12.0000000  12.0000000   1.0078250  12.0000000  12.0000000   1.0078250
 NucSpn=           2           0           0           1           0           0           1           0           0           1
 AtZEff=   0.0000000   0.0000000   0.0000000   0.0000000   0.0000000   0.0000000   0.0000000   0.0000000   0.0000000   0.0000000
 NQMom=    2.0440000   0.0000000   0.0000000   0.0000000   0.0000000   0.0000000   0.0000000   0.0000000   0.0000000   0.0000000
 NMagM=    0.4037610   0.0000000   0.0000000   2.7928460   0.0000000   0.0000000   2.7928460   0.0000000   0.0000000   2.7928460
 AtZNuc=   7.0000000   8.0000000   8.0000000   1.0000000   6.0000000   6.0000000   1.0000000   6.0000000   6.0000000   1.0000000

  Atom        41          42          43          44          45          46          47          48          49          50
 IAtWgt=          12           1          12           1          12           1          12          12           1          12
 AtmWgt=  12.0000000   1.0078250  12.0000000   1.0078250  12.0000000   1.0078250  12.0000000  12.0000000   1.0078250  12.0000000
 NucSpn=           0           1           0           1           0           1           0           0           1           0
 AtZEff=   0.0000000   0.0000000   0.0000000   0.0000000   0.0000000   0.0000000   0.0000000   0.0000000   0.0000000   0.0000000
 NQMom=    0.0000000   0.0000000   0.0000000   0.0000000   0.0000000   0.0000000   0.0000000   0.0000000   0.0000000   0.0000000
 NMagM=    0.0000000   2.7928460   0.0000000   2.7928460   0.0000000   2.7928460   0.0000000   0.0000000   2.7928460   0.0000000
 AtZNuc=   6.0000000   1.0000000   6.0000000   1.0000000   6.0000000   1.0000000   6.0000000   6.0000000   1.0000000   6.0000000

  Atom        51          52          53          54          55          56          57          58          59          60
 IAtWgt=           1          16          16          16          32          16           1           1          16           1
 AtmWgt=   1.0078250  15.9949146  15.9949146  15.9949146  31.9720718  15.9949146   1.0078250   1.0078250  15.9949146   1.0078250
 NucSpn=           1           0           0           0           0           0           1           1           0           1
 AtZEff=   0.0000000   0.0000000   0.0000000   0.0000000   0.0000000   0.0000000   0.0000000   0.0000000   0.0000000   0.0000000
 NQMom=    0.0000000   0.0000000   0.0000000   0.0000000   0.0000000   0.0000000   0.0000000   0.0000000   0.0000000   0.0000000
 NMagM=    2.7928460   0.0000000   0.0000000   0.0000000   0.0000000   0.0000000   2.7928460   2.7928460   0.0000000   2.7928460
 AtZNuc=   1.0000000   8.0000000   8.0000000   8.0000000  16.0000000   8.0000000   1.0000000   1.0000000   8.0000000   1.0000000

  Atom        61
 IAtWgt=           1
 AtmWgt=   1.0078250
 NucSpn=           1
 AtZEff=   0.0000000
 NQMom=    0.0000000
 NMagM=    2.7928460
 AtZNuc=   1.0000000
 Using perturbation frequencies:    0.000000    0.072000
 Leave Link  101 at Wed Jan 20 21:21:12 2021, MaxMem=  5368709120 cpu:         1.4
 (Enter /usr/local/bin/G09/G09d//g09/l106.exe)
 Differentiate once with respect to electric field.
 Nuclear step= 0.001000 Angstroms, electric field step= 0.000333 atomic units, NStep=1.
 Leave Link  106 at Wed Jan 20 21:21:12 2021, MaxMem=  5368709120 cpu:         0.0
 (Enter /usr/local/bin/G09/G09d//g09/l202.exe)
 Symmetry turned off by external request.
 Stoichiometry    C25H27NO7S
 Framework group  C1[X(C25H27NO7S)]
 Deg. of freedom   177
 Full point group                 C1      NOp   1
                          Input orientation:                          
 ---------------------------------------------------------------------
 Center     Atomic      Atomic             Coordinates (Angstroms)
 Number     Number       Type             X           Y           Z
 ---------------------------------------------------------------------
      1          6           0        4.981328    0.071552   10.993252
      2          1           0        5.237190   -0.321152   11.796859
      3          6           0        3.721703   -0.115648   10.538604
      4          1           0        3.115443   -0.622336   11.027606
      5          6           0        3.348624    0.456768    9.338043
      6          1           0        2.486605    0.336960    9.009138
      7          6           0        4.260512    1.200576    8.637825
      8          1           0        4.008560    1.584128    7.828959
      9          6           0        5.554116    1.395680    9.108582
     10          6           0        6.571241    2.139654    8.393078
     11          1           0        7.424292    2.184832    8.762582
     12          6           0        6.352534    2.762240    7.236733
     13          1           0        5.487633    2.713152    6.900267
     14          6           0        7.313628    3.510208    6.440030
     15          6           0        6.859881    4.162080    5.285657
     16          1           0        5.964942    4.086784    5.044526
     17          6           0        7.706735    4.910298    4.500788
     18          6           0        9.054207    5.005312    4.845144
     19          6           0        9.516534    4.350528    5.975355
     20          1           0       10.415511    4.407104    6.204980
     21          6           0        8.656140    3.617536    6.763017
     22          1           0        8.980968    3.189056    7.521586
     23          6           0        7.209337    0.995072   10.903999
     24          1           0        7.243593    0.545792   11.752479
     25          1           0        7.874112    0.624832   10.319170
     26          1           0        7.379610    1.931072   11.030893
     27          6           0       11.211774    5.821504    4.267876
     28          1           0       11.572521    4.932928    4.304859
     29          1           0       11.643778    6.314048    3.566836
     30          1           0       11.360398    6.262464    5.106986
     31          7           0        5.874834    0.814528   10.306020
     32          8           0        7.303978    5.576563    3.386193
     33          8           0        9.824057    5.755027    4.009650
     34          1           0        6.491451    5.358080    3.188784
     35          6           0       11.625734    3.489158    8.897037
     36          6           0       11.799321    4.840243    8.824879
     37          1           0       11.333829    5.398848    9.405271
     38          6           0       12.684164    5.393856    7.871531
     39          6           0       12.895367    6.789120    7.750719
     40          1           0       12.443058    7.374848    8.313851
     41          6           0       13.756273    7.278336    6.816602
     42          1           0       13.881943    8.196864    6.744115
     43          6           0       14.450900    6.418048    5.966807
     44          1           0       15.035548    6.766656    5.332174
     45          6           0       14.279507    5.076032    6.059348
     46          1           0       14.754396    4.512768    5.493257
     47          6           0       13.388097    4.521920    7.004971
     48          6           0       13.186172    3.129984    7.116085
     49          1           0       13.649195    2.551744    6.553445
     50          6           0       12.324882    2.624128    8.035244
     51          1           0       12.196412    1.704768    8.095239
     52          8           0        9.413483    3.682848   10.235176
     53          8           0       11.304968    2.659072   11.327088
     54          8           0       10.131317    1.509414    9.570298
     55         16           0       10.537122    2.790195   10.108447
     56          8           0        3.560232    2.189824    5.300286
     57          1           0        4.022351    2.146560    4.620450
     58          1           0        3.325427    3.020160    5.397922
     59          8           0        4.825874    4.922944    2.761915
     60          1           0        4.705227    4.293120    2.368577
     61          1           0        4.096599    5.366400    2.843607
 ---------------------------------------------------------------------
 Rotational constants (GHZ):      0.1356477      0.0772839      0.0516543
 Leave Link  202 at Wed Jan 20 21:21:12 2021, MaxMem=  5368709120 cpu:         0.0
 (Enter /usr/local/bin/G09/G09d//g09/l301.exe)
 Standard basis: 6-311+G(d) (5D, 7F)
 Ernie: Thresh=  0.10000D-02 Tol=  0.10000D-05 Strict=F.
   837 basis functions,  1373 primitive gaussians,   871 cartesian basis functions
   128 alpha electrons      128 beta electrons
       nuclear repulsion energy      3776.8843146181 Hartrees.
 IExCor= 1009 DFT=T Ex+Corr=PBE1PBE ExCW=0 ScaHFX=  0.250000
 ScaDFX=  0.750000  0.750000  1.000000  1.000000 ScalE2=  1.000000  1.000000
 IRadAn=      0 IRanWt=     -1 IRanGd=            0 ICorTp=0 IEmpDi=  4
 NAtoms=   61 NActive=   61 NUniq=   61 SFac= 1.00D+00 NAtFMM=   60 NAOKFM=T Big=T
 Integral buffers will be    131072 words long.
 Raffenetti 2 integral format.
 Two-electron integral symmetry is turned off.
 Leave Link  301 at Wed Jan 20 21:21:12 2021, MaxMem=  5368709120 cpu:         0.5
 (Enter /usr/local/bin/G09/G09d//g09/l302.exe)
 NPDir=0 NMtPBC=     1 NCelOv=     1 NCel=       1 NClECP=     1 NCelD=      1
         NCelK=      1 NCelE2=     1 NClLst=     1 CellRange=     0.0.
 One-electron integrals computed using PRISM.
 NBasis=   837 RedAO= T EigKep=  1.14D-06  NBF=   837
 NBsUse=   827 1.00D-06 EigRej=  8.99D-07 NBFU=   827
 Precomputing XC quadrature grid using
 IXCGrd= 4 IRadAn=           0 IRanWt=          -1 IRanGd=           0 AccXCQ= 0.00D+00.
 Generated NRdTot=       0 NPtTot=           0 NUsed=           0 NTot=          32
 NSgBfM=   853   853   853   853   853 MxSgAt=    61 MxSgA2=    61.
 Leave Link  302 at Wed Jan 20 21:21:15 2021, MaxMem=  5368709120 cpu:        16.2
 (Enter /usr/local/bin/G09/G09d//g09/l303.exe)
 DipDrv:  MaxL=1.
 Leave Link  303 at Wed Jan 20 21:21:15 2021, MaxMem=  5368709120 cpu:         1.3
 (Enter /usr/local/bin/G09/G09d//g09/l401.exe)
 ExpMin= 4.05D-02 ExpMax= 9.34D+04 ExpMxC= 3.17D+03 IAcc=2 IRadAn=         4 AccDes= 0.00D+00
 Harris functional with IExCor= 1009 and IRadAn=       4 diagonalized for initial guess.
 HarFok:  IExCor= 1009 AccDes= 0.00D+00 IRadAn=         4 IDoV= 1 UseB2=F ITyADJ=14
 ICtDFT=  3500011 ScaDFX=  1.000000  1.000000  1.000000  1.000000
 FoFCou: FMM=F IPFlag=           0 FMFlag=      100000 FMFlg1=        2001
         NFxFlg=           0 DoJE=T BraDBF=F KetDBF=T FulRan=T
         wScrn=  0.000000 ICntrl=     500 IOpCl=  0 I1Cent=   200000004 NGrid=           0
         NMat0=    1 NMatS0=      1 NMatT0=    0 NMatD0=    1 NMtDS0=    0 NMtDT0=    0
 Symmetry not used in FoFCou.
 Harris En= -1947.02327971623    
 JPrj=0 DoOrth=F DoCkMO=F.
 Leave Link  401 at Wed Jan 20 21:21:22 2021, MaxMem=  5368709120 cpu:        53.8
 (Enter /usr/local/bin/G09/G09d//g09/l502.exe)
 Closed shell SCF:
 Using DIIS extrapolation, IDIIS=  1040.
 Two-electron integral symmetry not used.
 IVT=     2306789 IEndB=     2306789 NGot=  5368709120 MDV=  5367178484
 LenX=  5367178484 LenY=  5366418972
 Requested convergence on RMS density matrix=1.00D-08 within 128 cycles.
 Requested convergence on MAX density matrix=1.00D-06.
 Requested convergence on             energy=1.00D-06.
 No special actions if energy rises.
 Fock matrices will be formed incrementally for  20 cycles.

 Cycle   1  Pass 1  IDiag  1:
 FoFJK:  IHMeth= 1 ICntrl=       0 DoSepK=F KAlg= 0 I1Cent=   0 FoldK=F
 IRaf= 800000000 NMat=   1 IRICut=       1 DoRegI=T DoRafI=F ISym2E= 0.
 FoFCou: FMM=T IPFlag=           0 FMFlag=      100000 FMFlg1=        2001
         NFxFlg=           0 DoJE=F BraDBF=F KetDBF=F FulRan=T
         wScrn=  0.000000 ICntrl=       0 IOpCl=  0 I1Cent=           0 NGrid=           0
         NMat0=    1 NMatS0=      1 NMatT0=    0 NMatD0=    1 NMtDS0=    0 NMtDT0=    0
 Symmetry not used in FoFCou.
 FMM levels:  10  Number of levels for PrismC:   9
 E= -1945.02739557507    
 DIIS: error= 4.48D-02 at cycle   1 NSaved=   1.
 NSaved= 1 IEnMin= 1 EnMin= -1945.02739557507     IErMin= 1 ErrMin= 4.48D-02
 ErrMax= 4.48D-02  0.00D+00 EMaxC= 1.00D-01 BMatC= 1.64D+00 BMatP= 1.64D+00
 IDIUse=3 WtCom= 5.52D-01 WtEn= 4.48D-01
 Coeff-Com:  0.100D+01
 Coeff-En:   0.100D+01
 Coeff:      0.100D+01
 Gap=     0.110 Goal=   None    Shift=    0.000
 GapD=    0.110 DampG=1.000 DampE=0.500 DampFc=0.5000 IDamp=-1.
 Damping current iteration by 5.00D-01
 RMSDP=9.69D-02 MaxDP=1.79D+01              OVMax= 8.52D-01

 Cycle   2  Pass 1  IDiag  1:
 RMSU=  4.20D-02    CP:  1.24D+00
 E= -1945.18259880502     Delta-E=       -0.155203229952 Rises=F Damp=T
 DIIS: error= 1.11D-02 at cycle   2 NSaved=   2.
 NSaved= 2 IEnMin= 2 EnMin= -1945.18259880502     IErMin= 2 ErrMin= 1.11D-02
 ErrMax= 1.11D-02  0.00D+00 EMaxC= 1.00D-01 BMatC= 2.68D-01 BMatP= 1.64D+00
 IDIUse=3 WtCom= 8.89D-01 WtEn= 1.11D-01
 Coeff-Com:  0.180D+00 0.820D+00
 Coeff-En:   0.432D+00 0.568D+00
 Coeff:      0.208D+00 0.792D+00
 Gap=    -0.034 Goal=   None    Shift=    0.000
 RMSDP=3.69D-02 MaxDP=5.68D+00 DE=-1.55D-01 OVMax= 9.20D-01

 Cycle   3  Pass 1  IDiag  1:
 RMSU=  1.63D-02    CP:  1.09D+00  3.05D-01
 E= -1945.88214622881     Delta-E=       -0.699547423789 Rises=F Damp=F
 DIIS: error= 3.20D-02 at cycle   3 NSaved=   3.
 NSaved= 3 IEnMin= 3 EnMin= -1945.88214622881     IErMin= 2 ErrMin= 1.11D-02
 ErrMax= 3.20D-02  0.00D+00 EMaxC= 1.00D-01 BMatC= 3.55D-01 BMatP= 2.68D-01
 IDIUse=2 WtCom= 0.00D+00 WtEn= 1.00D+00
 Coeff-En:   0.000D+00 0.111D+00 0.889D+00
 Coeff:      0.000D+00 0.111D+00 0.889D+00
 Gap=     0.257 Goal=   None    Shift=    0.000
 RMSDP=2.62D-02 MaxDP=2.58D+00 DE=-7.00D-01 OVMax= 9.47D-01

 Cycle   4  Pass 1  IDiag  1:
 RMSU=  2.16D-02    CP:  9.75D-01  3.34D-01  4.03D-01
 E= -1940.59236338840     Delta-E=        5.289782840407 Rises=F Damp=F
 DIIS: error= 9.08D-02 at cycle   4 NSaved=   4.
 NSaved= 4 IEnMin= 3 EnMin= -1945.88214622881     IErMin= 2 ErrMin= 1.11D-02
 ErrMax= 9.08D-02  0.00D+00 EMaxC= 1.00D-01 BMatC= 2.79D+00 BMatP= 2.68D-01
 IDIUse=2 WtCom= 0.00D+00 WtEn= 1.00D+00
 Coeff-En:   0.000D+00 0.000D+00 0.886D+00 0.114D+00
 Coeff:      0.000D+00 0.000D+00 0.886D+00 0.114D+00
 Gap=    -0.005 Goal=   None    Shift=    0.000
 RMSDP=3.84D-02 MaxDP=4.52D+00 DE= 5.29D+00 OVMax= 9.21D-01

 Cycle   5  Pass 1  IDiag  1:
 RMSU=  1.99D-02    CP:  1.14D+00  5.02D-01  7.57D-01 -2.43D-01
 E= -1946.03119666545     Delta-E=       -5.438833277045 Rises=F Damp=F
 DIIS: error= 2.12D-02 at cycle   5 NSaved=   5.
 NSaved= 5 IEnMin= 5 EnMin= -1946.03119666545     IErMin= 2 ErrMin= 1.11D-02
 ErrMax= 2.12D-02  0.00D+00 EMaxC= 1.00D-01 BMatC= 2.33D-01 BMatP= 2.68D-01
 IDIUse=3 WtCom= 7.88D-01 WtEn= 2.12D-01
 Coeff-Com:  0.310D-01 0.170D+00 0.445D+00 0.474D-01 0.306D+00
 Coeff-En:   0.000D+00 0.000D+00 0.366D+00 0.000D+00 0.634D+00
 Coeff:      0.245D-01 0.134D+00 0.429D+00 0.374D-01 0.376D+00
 Gap=     0.128 Goal=   None    Shift=    0.000
 RMSDP=1.57D-02 MaxDP=1.92D+00 DE=-5.44D+00 OVMax= 1.64D-01

 Cycle   6  Pass 1  IDiag  1:
 RMSU=  6.43D-03    CP:  1.09D+00  4.59D-01  4.78D-01 -2.25D-01  3.81D-01
 E= -1946.20333471640     Delta-E=       -0.172138050959 Rises=F Damp=F
 DIIS: error= 8.28D-03 at cycle   6 NSaved=   6.
 NSaved= 6 IEnMin= 6 EnMin= -1946.20333471640     IErMin= 6 ErrMin= 8.28D-03
 ErrMax= 8.28D-03  0.00D+00 EMaxC= 1.00D-01 BMatC= 2.72D-02 BMatP= 2.33D-01
 IDIUse=3 WtCom= 9.17D-01 WtEn= 8.28D-02
 Coeff-Com: -0.868D-02 0.401D-01 0.108D+00 0.574D-02 0.250D+00 0.605D+00
 Coeff-En:   0.000D+00 0.000D+00 0.000D+00 0.000D+00 0.119D+00 0.881D+00
 Coeff:     -0.797D-02 0.368D-01 0.988D-01 0.527D-02 0.239D+00 0.628D+00
 Gap=     0.105 Goal=   None    Shift=    0.000
 RMSDP=4.37D-03 MaxDP=3.16D-01 DE=-1.72D-01 OVMax= 6.08D-02

 Cycle   7  Pass 1  IDiag  1:
 RMSU=  2.40D-03    CP:  1.10D+00  5.07D-01  4.52D-01 -2.31D-01  5.22D-01
                    CP:  1.02D+00
 E= -1946.22726893775     Delta-E=       -0.023934221348 Rises=F Damp=F
 DIIS: error= 1.70D-03 at cycle   7 NSaved=   7.
 NSaved= 7 IEnMin= 7 EnMin= -1946.22726893775     IErMin= 7 ErrMin= 1.70D-03
 ErrMax= 1.70D-03  0.00D+00 EMaxC= 1.00D-01 BMatC= 1.77D-03 BMatP= 2.72D-02
 IDIUse=3 WtCom= 9.83D-01 WtEn= 1.70D-02
 Coeff-Com: -0.946D-02 0.218D-01-0.105D-02-0.152D-02 0.596D-01 0.315D+00
 Coeff-Com:  0.615D+00
 Coeff-En:   0.000D+00 0.000D+00 0.000D+00 0.000D+00 0.000D+00 0.000D+00
 Coeff-En:   0.100D+01
 Coeff:     -0.930D-02 0.214D-01-0.103D-02-0.150D-02 0.586D-01 0.310D+00
 Coeff:      0.622D+00
 Gap=     0.088 Goal=   None    Shift=    0.000
 RMSDP=1.54D-03 MaxDP=1.88D-01 DE=-2.39D-02 OVMax= 1.28D-02

 Cycle   8  Pass 1  IDiag  1:
 RMSU=  6.92D-04    CP:  1.10D+00  5.25D-01  4.32D-01 -2.55D-01  5.55D-01
                    CP:  1.06D+00  9.20D-01
 E= -1946.22866953850     Delta-E=       -0.001400600742 Rises=F Damp=F
 DIIS: error= 8.67D-04 at cycle   8 NSaved=   8.
 NSaved= 8 IEnMin= 8 EnMin= -1946.22866953850     IErMin= 8 ErrMin= 8.67D-04
 ErrMax= 8.67D-04  0.00D+00 EMaxC= 1.00D-01 BMatC= 2.42D-04 BMatP= 1.77D-03
 IDIUse=3 WtCom= 9.91D-01 WtEn= 8.67D-03
 Coeff-Com: -0.334D-02 0.707D-02-0.954D-02-0.368D-03-0.149D-02 0.733D-01
 Coeff-Com:  0.343D+00 0.591D+00
 Coeff-En:   0.000D+00 0.000D+00 0.000D+00 0.000D+00 0.000D+00 0.000D+00
 Coeff-En:   0.110D+00 0.890D+00
 Coeff:     -0.332D-02 0.701D-02-0.945D-02-0.364D-03-0.147D-02 0.727D-01
 Coeff:      0.341D+00 0.594D+00
 Gap=     0.090 Goal=   None    Shift=    0.000
 RMSDP=5.95D-04 MaxDP=5.80D-02 DE=-1.40D-03 OVMax= 5.44D-03

 Cycle   9  Pass 1  IDiag  1:
 RMSU=  2.39D-04    CP:  1.10D+00  5.23D-01  4.35D-01 -2.49D-01  5.38D-01
                    CP:  1.06D+00  9.59D-01  6.49D-01
 E= -1946.22888631775     Delta-E=       -0.000216779255 Rises=F Damp=F
 DIIS: error= 1.83D-04 at cycle   9 NSaved=   9.
 NSaved= 9 IEnMin= 9 EnMin= -1946.22888631775     IErMin= 9 ErrMin= 1.83D-04
 ErrMax= 1.83D-04  0.00D+00 EMaxC= 1.00D-01 BMatC= 2.17D-05 BMatP= 2.42D-04
 IDIUse=3 WtCom= 9.98D-01 WtEn= 1.83D-03
 Coeff-Com: -0.945D-03 0.198D-02-0.518D-02-0.729D-06-0.612D-02 0.115D-01
 Coeff-Com:  0.124D+00 0.315D+00 0.560D+00
 Coeff-En:   0.000D+00 0.000D+00 0.000D+00 0.000D+00 0.000D+00 0.000D+00
 Coeff-En:   0.000D+00 0.000D+00 0.100D+01
 Coeff:     -0.943D-03 0.198D-02-0.517D-02-0.728D-06-0.611D-02 0.115D-01
 Coeff:      0.124D+00 0.314D+00 0.561D+00
 Gap=     0.090 Goal=   None    Shift=    0.000
 RMSDP=1.15D-04 MaxDP=8.47D-03 DE=-2.17D-04 OVMax= 1.70D-03

 Cycle  10  Pass 1  IDiag  1:
 RMSU=  8.62D-05    CP:  1.10D+00  5.23D-01  4.33D-01 -2.48D-01  5.41D-01
                    CP:  1.07D+00  9.77D-01  6.91D-01  9.42D-01
 E= -1946.22890473571     Delta-E=       -0.000018417963 Rises=F Damp=F
 DIIS: error= 8.58D-05 at cycle  10 NSaved=  10.
 NSaved=10 IEnMin=10 EnMin= -1946.22890473571     IErMin=10 ErrMin= 8.58D-05
 ErrMax= 8.58D-05  0.00D+00 EMaxC= 1.00D-01 BMatC= 3.09D-06 BMatP= 2.17D-05
 IDIUse=1 WtCom= 1.00D+00 WtEn= 0.00D+00
 Coeff-Com: -0.236D-03 0.410D-03-0.230D-02 0.330D-04-0.289D-02 0.316D-03
 Coeff-Com:  0.237D-01 0.893D-01 0.296D+00 0.596D+00
 Coeff:     -0.236D-03 0.410D-03-0.230D-02 0.330D-04-0.289D-02 0.316D-03
 Coeff:      0.237D-01 0.893D-01 0.296D+00 0.596D+00
 Gap=     0.090 Goal=   None    Shift=    0.000
 RMSDP=8.63D-05 MaxDP=1.14D-02 DE=-1.84D-05 OVMax= 5.35D-04

 Cycle  11  Pass 1  IDiag  1:
 RMSU=  3.34D-05    CP:  1.10D+00  5.24D-01  4.31D-01 -2.50D-01  5.41D-01
                    CP:  1.07D+00  9.79D-01  7.05D-01  9.31D-01  8.99D-01
 E= -1946.22890741797     Delta-E=       -0.000002682254 Rises=F Damp=F
 DIIS: error= 2.22D-05 at cycle  11 NSaved=  11.
 NSaved=11 IEnMin=11 EnMin= -1946.22890741797     IErMin=11 ErrMin= 2.22D-05
 ErrMax= 2.22D-05  0.00D+00 EMaxC= 1.00D-01 BMatC= 4.53D-07 BMatP= 3.09D-06
 IDIUse=1 WtCom= 1.00D+00 WtEn= 0.00D+00
 Coeff-Com:  0.802D-05 0.680D-04-0.399D-03 0.243D-05-0.668D-03-0.176D-02
 Coeff-Com: -0.880D-02-0.475D-03 0.755D-01 0.328D+00 0.609D+00
 Coeff:      0.802D-05 0.680D-04-0.399D-03 0.243D-05-0.668D-03-0.176D-02
 Coeff:     -0.880D-02-0.475D-03 0.755D-01 0.328D+00 0.609D+00
 Gap=     0.090 Goal=   None    Shift=    0.000
 RMSDP=1.45D-05 MaxDP=2.72D-03 DE=-2.68D-06 OVMax= 4.24D-04

 Cycle  12  Pass 1  IDiag  1:
 RMSU=  9.39D-06    CP:  1.10D+00  5.24D-01  4.31D-01 -2.50D-01  5.41D-01
                    CP:  1.07D+00  9.81D-01  7.06D-01  9.46D-01  9.14D-01
                    CP:  8.75D-01
 E= -1946.22890783968     Delta-E=       -0.000000421715 Rises=F Damp=F
 DIIS: error= 8.94D-06 at cycle  12 NSaved=  12.
 NSaved=12 IEnMin=12 EnMin= -1946.22890783968     IErMin=12 ErrMin= 8.94D-06
 ErrMax= 8.94D-06  0.00D+00 EMaxC= 1.00D-01 BMatC= 4.81D-08 BMatP= 4.53D-07
 IDIUse=1 WtCom= 1.00D+00 WtEn= 0.00D+00
 Coeff-Com:  0.279D-04 0.129D-04 0.485D-04-0.420D-05-0.614D-04-0.106D-02
 Coeff-Com: -0.731D-02-0.841D-02 0.941D-02 0.112D+00 0.314D+00 0.580D+00
 Coeff:      0.279D-04 0.129D-04 0.485D-04-0.420D-05-0.614D-04-0.106D-02
 Coeff:     -0.731D-02-0.841D-02 0.941D-02 0.112D+00 0.314D+00 0.580D+00
 Gap=     0.090 Goal=   None    Shift=    0.000
 RMSDP=6.10D-06 MaxDP=6.94D-04 DE=-4.22D-07 OVMax= 1.00D-04

 Cycle  13  Pass 1  IDiag  1:
 RMSU=  3.56D-06    CP:  1.10D+00  5.24D-01  4.31D-01 -2.50D-01  5.41D-01
                    CP:  1.07D+00  9.80D-01  7.07D-01  9.54D-01  9.18D-01
                    CP:  9.00D-01  8.99D-01
 E= -1946.22890788091     Delta-E=       -0.000000041227 Rises=F Damp=F
 DIIS: error= 4.12D-06 at cycle  13 NSaved=  13.
 NSaved=13 IEnMin=13 EnMin= -1946.22890788091     IErMin=13 ErrMin= 4.12D-06
 ErrMax= 4.12D-06  0.00D+00 EMaxC= 1.00D-01 BMatC= 1.15D-08 BMatP= 4.81D-08
 IDIUse=1 WtCom= 1.00D+00 WtEn= 0.00D+00
 Coeff-Com:  0.123D-04-0.153D-04 0.947D-04-0.382D-05 0.977D-04-0.283D-03
 Coeff-Com: -0.282D-02-0.450D-02-0.756D-02 0.141D-01 0.872D-01 0.356D+00
 Coeff-Com:  0.557D+00
 Coeff:      0.123D-04-0.153D-04 0.947D-04-0.382D-05 0.977D-04-0.283D-03
 Coeff:     -0.282D-02-0.450D-02-0.756D-02 0.141D-01 0.872D-01 0.356D+00
 Coeff:      0.557D+00
 Gap=     0.090 Goal=   None    Shift=    0.000
 RMSDP=2.00D-06 MaxDP=2.08D-04 DE=-4.12D-08 OVMax= 6.50D-05

 Cycle  14  Pass 1  IDiag  1:
 RMSU=  1.05D-06    CP:  1.10D+00  5.24D-01  4.31D-01 -2.50D-01  5.41D-01
                    CP:  1.07D+00  9.80D-01  7.07D-01  9.55D-01  9.22D-01
                    CP:  9.22D-01  8.79D-01  8.92D-01
 E= -1946.22890789165     Delta-E=       -0.000000010737 Rises=F Damp=F
 DIIS: error= 1.49D-06 at cycle  14 NSaved=  14.
 NSaved=14 IEnMin=14 EnMin= -1946.22890789165     IErMin=14 ErrMin= 1.49D-06
 ErrMax= 1.49D-06  0.00D+00 EMaxC= 1.00D-01 BMatC= 1.35D-09 BMatP= 1.15D-08
 IDIUse=1 WtCom= 1.00D+00 WtEn= 0.00D+00
 Coeff-Com:  0.557D-05-0.133D-04 0.558D-04-0.143D-05 0.503D-04-0.581D-04
 Coeff-Com: -0.550D-03-0.905D-03-0.419D-02-0.395D-02 0.421D-02 0.954D-01
 Coeff-Com:  0.287D+00 0.623D+00
 Coeff:      0.557D-05-0.133D-04 0.558D-04-0.143D-05 0.503D-04-0.581D-04
 Coeff:     -0.550D-03-0.905D-03-0.419D-02-0.395D-02 0.421D-02 0.954D-01
 Coeff:      0.287D+00 0.623D+00
 Gap=     0.090 Goal=   None    Shift=    0.000
 RMSDP=1.02D-06 MaxDP=1.05D-04 DE=-1.07D-08 OVMax= 1.03D-05

 Cycle  15  Pass 1  IDiag  1:
 RMSU=  4.37D-07    CP:  1.10D+00  5.24D-01  4.31D-01 -2.50D-01  5.41D-01
                    CP:  1.07D+00  9.80D-01  7.06D-01  9.55D-01  9.24D-01
                    CP:  9.20D-01  9.01D-01  9.33D-01  8.97D-01
 E= -1946.22890789354     Delta-E=       -0.000000001898 Rises=F Damp=F
 DIIS: error= 6.15D-07 at cycle  15 NSaved=  15.
 NSaved=15 IEnMin=15 EnMin= -1946.22890789354     IErMin=15 ErrMin= 6.15D-07
 ErrMax= 6.15D-07  0.00D+00 EMaxC= 1.00D-01 BMatC= 2.09D-10 BMatP= 1.35D-09
 IDIUse=1 WtCom= 1.00D+00 WtEn= 0.00D+00
 Coeff-Com:  0.231D-05-0.494D-05 0.253D-04-0.691D-06 0.157D-04 0.137D-05
 Coeff-Com:  0.221D-04 0.370D-04-0.141D-02-0.374D-02-0.915D-02 0.242D-02
 Coeff-Com:  0.870D-01 0.350D+00 0.575D+00
 Coeff:      0.231D-05-0.494D-05 0.253D-04-0.691D-06 0.157D-04 0.137D-05
 Coeff:      0.221D-04 0.370D-04-0.141D-02-0.374D-02-0.915D-02 0.242D-02
 Coeff:      0.870D-01 0.350D+00 0.575D+00
 Gap=     0.090 Goal=   None    Shift=    0.000
 RMSDP=2.67D-07 MaxDP=2.35D-05 DE=-1.90D-09 OVMax= 4.33D-06

 Cycle  16  Pass 1  IDiag  1:
 RMSU=  1.94D-07    CP:  1.10D+00  5.24D-01  4.31D-01 -2.50D-01  5.41D-01
                    CP:  1.07D+00  9.80D-01  7.06D-01  9.55D-01  9.24D-01
                    CP:  9.21D-01  9.12D-01  9.44D-01  9.26D-01  8.13D-01
 E= -1946.22890789320     Delta-E=        0.000000000343 Rises=F Damp=F
 DIIS: error= 1.16D-07 at cycle  16 NSaved=  16.
 NSaved=16 IEnMin=15 EnMin= -1946.22890789354     IErMin=16 ErrMin= 1.16D-07
 ErrMax= 1.16D-07  0.00D+00 EMaxC= 1.00D-01 BMatC= 1.85D-11 BMatP= 2.09D-10
 IDIUse=1 WtCom= 1.00D+00 WtEn= 0.00D+00
 Coeff-Com:  0.587D-06-0.133D-05 0.584D-05-0.141D-06 0.871D-06 0.111D-04
 Coeff-Com:  0.837D-04 0.161D-03-0.204D-04-0.108D-02-0.451D-02-0.114D-01
 Coeff-Com:  0.413D-02 0.756D-01 0.244D+00 0.693D+00
 Coeff:      0.587D-06-0.133D-05 0.584D-05-0.141D-06 0.871D-06 0.111D-04
 Coeff:      0.837D-04 0.161D-03-0.204D-04-0.108D-02-0.451D-02-0.114D-01
 Coeff:      0.413D-02 0.756D-01 0.244D+00 0.693D+00
 Gap=     0.090 Goal=   None    Shift=    0.000
 RMSDP=1.66D-07 MaxDP=2.05D-05 DE= 3.43D-10 OVMax= 1.05D-06

 Cycle  17  Pass 1  IDiag  1:
 RMSU=  5.97D-08    CP:  1.10D+00  5.24D-01  4.31D-01 -2.50D-01  5.41D-01
                    CP:  1.07D+00  9.80D-01  7.06D-01  9.55D-01  9.24D-01
                    CP:  9.21D-01  9.10D-01  9.52D-01  9.35D-01  8.23D-01
                    CP:  9.51D-01
 E= -1946.22890789333     Delta-E=       -0.000000000125 Rises=F Damp=F
 DIIS: error= 6.04D-08 at cycle  17 NSaved=  17.
 NSaved=17 IEnMin=15 EnMin= -1946.22890789354     IErMin=17 ErrMin= 6.04D-08
 ErrMax= 6.04D-08  0.00D+00 EMaxC= 1.00D-01 BMatC= 2.47D-12 BMatP= 1.85D-11
 IDIUse=1 WtCom= 1.00D+00 WtEn= 0.00D+00
 Coeff-Com:  0.808D-07-0.306D-06 0.447D-06-0.253D-07-0.986D-06 0.728D-05
 Coeff-Com:  0.385D-04 0.734D-04 0.132D-03-0.162D-03-0.120D-02-0.606D-02
 Coeff-Com: -0.680D-02 0.124D-02 0.658D-01 0.377D+00 0.570D+00
 Coeff:      0.808D-07-0.306D-06 0.447D-06-0.253D-07-0.986D-06 0.728D-05
 Coeff:      0.385D-04 0.734D-04 0.132D-03-0.162D-03-0.120D-02-0.606D-02
 Coeff:     -0.680D-02 0.124D-02 0.658D-01 0.377D+00 0.570D+00
 Gap=     0.090 Goal=   None    Shift=    0.000
 RMSDP=4.74D-08 MaxDP=5.49D-06 DE=-1.25D-10 OVMax= 5.82D-07

 Cycle  18  Pass 1  IDiag  1:
 RMSU=  1.75D-08    CP:  1.10D+00  5.24D-01  4.31D-01 -2.50D-01  5.41D-01
                    CP:  1.07D+00  9.80D-01  7.06D-01  9.55D-01  9.24D-01
                    CP:  9.21D-01  9.10D-01  9.54D-01  9.44D-01  8.29D-01
                    CP:  9.88D-01  8.46D-01
 E= -1946.22890789325     Delta-E=        0.000000000073 Rises=F Damp=F
 DIIS: error= 2.14D-08 at cycle  18 NSaved=  18.
 NSaved=18 IEnMin=15 EnMin= -1946.22890789354     IErMin=18 ErrMin= 2.14D-08
 ErrMax= 2.14D-08  0.00D+00 EMaxC= 1.00D-01 BMatC= 1.81D-13 BMatP= 2.47D-12
 IDIUse=1 WtCom= 1.00D+00 WtEn= 0.00D+00
 Coeff-Com: -0.560D-08-0.726D-07-0.257D-06 0.555D-08-0.578D-06 0.265D-05
 Coeff-Com:  0.109D-04 0.231D-04 0.694D-04 0.235D-04-0.161D-03-0.191D-02
 Coeff-Com: -0.337D-02-0.556D-02 0.119D-01 0.125D+00 0.287D+00 0.587D+00
 Coeff:     -0.560D-08-0.726D-07-0.257D-06 0.555D-08-0.578D-06 0.265D-05
 Coeff:      0.109D-04 0.231D-04 0.694D-04 0.235D-04-0.161D-03-0.191D-02
 Coeff:     -0.337D-02-0.556D-02 0.119D-01 0.125D+00 0.287D+00 0.587D+00
 Gap=     0.090 Goal=   None    Shift=    0.000
 RMSDP=1.67D-08 MaxDP=2.04D-06 DE= 7.28D-11 OVMax= 1.69D-07

 Cycle  19  Pass 1  IDiag  1:
 RMSU=  1.25D-08    CP:  1.10D+00  5.24D-01  4.31D-01 -2.50D-01  5.41D-01
                    CP:  1.07D+00  9.80D-01  7.06D-01  9.55D-01  9.24D-01
                    CP:  9.21D-01  9.09D-01  9.55D-01  9.42D-01  8.32D-01
                    CP:  9.78D-01  8.77D-01  8.16D-01
 E= -1946.22890789359     Delta-E=       -0.000000000337 Rises=F Damp=F
 DIIS: error= 5.33D-09 at cycle  19 NSaved=  19.
 NSaved=19 IEnMin=19 EnMin= -1946.22890789359     IErMin=19 ErrMin= 5.33D-09
 ErrMax= 5.33D-09  0.00D+00 EMaxC= 1.00D-01 BMatC= 2.42D-14 BMatP= 1.81D-13
 IDIUse=1 WtCom= 1.00D+00 WtEn= 0.00D+00
 Coeff-Com: -0.163D-07 0.145D-07-0.205D-06 0.394D-08-0.224D-06 0.689D-06
 Coeff-Com:  0.198D-05 0.520D-05 0.222D-04 0.255D-04 0.296D-04-0.384D-03
 Coeff-Com: -0.110D-02-0.310D-02-0.664D-03 0.250D-01 0.942D-01 0.320D+00
 Coeff-Com:  0.566D+00
 Coeff:     -0.163D-07 0.145D-07-0.205D-06 0.394D-08-0.224D-06 0.689D-06
 Coeff:      0.198D-05 0.520D-05 0.222D-04 0.255D-04 0.296D-04-0.384D-03
 Coeff:     -0.110D-02-0.310D-02-0.664D-03 0.250D-01 0.942D-01 0.320D+00
 Coeff:      0.566D+00
 Gap=     0.090 Goal=   None    Shift=    0.000
 RMSDP=1.53D-08 MaxDP=1.53D-06 DE=-3.37D-10 OVMax= 7.20D-08

 Cycle  20  Pass 1  IDiag  1:
 RMSU=  1.11D-08    CP:  1.10D+00  5.24D-01  4.31D-01 -2.50D-01  5.41D-01
                    CP:  1.07D+00  9.80D-01  7.06D-01  9.55D-01  9.24D-01
                    CP:  9.21D-01  9.09D-01  9.55D-01  9.44D-01  8.32D-01
                    CP:  9.88D-01  9.15D-01  9.96D-01  1.43D+00
 E= -1946.22890789328     Delta-E=        0.000000000305 Rises=F Damp=F
 DIIS: error= 2.09D-09 at cycle  20 NSaved=  20.
 NSaved=20 IEnMin=19 EnMin= -1946.22890789359     IErMin=20 ErrMin= 2.09D-09
 ErrMax= 2.09D-09  0.00D+00 EMaxC= 1.00D-01 BMatC= 3.85D-15 BMatP= 2.42D-14
 IDIUse=1 WtCom= 1.00D+00 WtEn= 0.00D+00
 Large coefficients: NSaved= 20 BigCof=    0.00 CofMax=   10.00 Det=-8.98D-15
 Inversion failed.  Reducing to 19 matrices.
 Large coefficients: NSaved= 19 BigCof=    0.00 CofMax=   10.00 Det=-8.97D-15
 Inversion failed.  Reducing to 18 matrices.
 Coeff-Com:  0.818D-08-0.578D-07-0.482D-07-0.210D-07-0.590D-06-0.415D-06
 Coeff-Com:  0.152D-05 0.742D-05 0.263D-04 0.213D-04-0.129D-03-0.741D-03
 Coeff-Com: -0.988D-03 0.531D-03 0.197D-01 0.109D+00 0.319D+00 0.554D+00
 Coeff:      0.818D-08-0.578D-07-0.482D-07-0.210D-07-0.590D-06-0.415D-06
 Coeff:      0.152D-05 0.742D-05 0.263D-04 0.213D-04-0.129D-03-0.741D-03
 Coeff:     -0.988D-03 0.531D-03 0.197D-01 0.109D+00 0.319D+00 0.554D+00
 Gap=     0.090 Goal=   None    Shift=    0.000
 RMSDP=2.99D-08 MaxDP=2.41D-06 DE= 3.05D-10 OVMax= 2.02D-08

 Cycle  21  Pass 1  IDiag  1:
 Restarting incremental Fock formation.
 E= -1946.22890789227     Delta-E=        0.000000001017 Rises=F Damp=F
 DIIS: error= 2.49D-08 at cycle  21 NSaved=  19.
 NSaved=19 IEnMin=17 EnMin= -1946.22890789359     IErMin=18 ErrMin= 2.09D-09
 ErrMax= 2.49D-08  0.00D+00 EMaxC= 1.00D-01 BMatC= 2.15D-13 BMatP= 3.85D-15
 IDIUse=1 WtCom= 1.00D+00 WtEn= 0.00D+00
 Large coefficients: NSaved= 19 BigCof=    0.00 CofMax=   10.00 Det=-9.00D-15
 Inversion failed.  Reducing to 18 matrices.
 Large coefficients: NSaved= 18 BigCof=    0.00 CofMax=   10.00 Det=-9.03D-15
 Inversion failed.  Reducing to 17 matrices.
 Large coefficients: NSaved= 17 BigCof=    0.00 CofMax=   10.00 Det=-9.53D-15
 Inversion failed.  Reducing to 16 matrices.
 Large coefficients: NSaved= 16 BigCof=    0.00 CofMax=   10.00 Det=-9.80D-15
 Inversion failed.  Reducing to 15 matrices.
 Coeff-Com: -0.608D-06-0.681D-06-0.195D-05-0.103D-05 0.104D-04 0.366D-04
 Coeff-Com:  0.183D-04-0.222D-03-0.230D-03 0.705D-03 0.170D-01 0.992D-01
 Coeff-Com:  0.310D+00 0.568D+00 0.544D-02
 Coeff:     -0.608D-06-0.681D-06-0.195D-05-0.103D-05 0.104D-04 0.366D-04
 Coeff:      0.183D-04-0.222D-03-0.230D-03 0.705D-03 0.170D-01 0.992D-01
 Coeff:      0.310D+00 0.568D+00 0.544D-02
 Gap=     0.090 Goal=   None    Shift=    0.000
 RMSDP=7.97D-09 MaxDP=7.58D-07 DE= 1.02D-09 OVMax= 1.22D-09

 Cycle  22  Pass 1  IDiag  1:
 RMSU=  7.49D-09    CP:  1.00D+00
 E= -1946.22890789218     Delta-E=        0.000000000090 Rises=F Damp=F
 DIIS: error= 2.47D-08 at cycle  22 NSaved=  16.
 NSaved=16 IEnMin=13 EnMin= -1946.22890789359     IErMin=14 ErrMin= 2.09D-09
 ErrMax= 2.47D-08  0.00D+00 EMaxC= 1.00D-01 BMatC= 2.12D-13 BMatP= 3.85D-15
 IDIUse=1 WtCom= 1.00D+00 WtEn= 0.00D+00
 Large coefficients: NSaved= 16 BigCof=    0.00 CofMax=   10.00 Det=-1.24D-16
 Inversion failed.  Reducing to 15 matrices.
 Coeff-Com:  0.283D-06-0.301D-05-0.100D-04-0.146D-04 0.210D-04 0.709D-04
 Coeff-Com:  0.865D-04-0.951D-04-0.147D-02 0.101D-01 0.834D-01 0.301D+00
 Coeff-Com:  0.600D+00-0.102D+00 0.109D+00
 Coeff:      0.283D-06-0.301D-05-0.100D-04-0.146D-04 0.210D-04 0.709D-04
 Coeff:      0.865D-04-0.951D-04-0.147D-02 0.101D-01 0.834D-01 0.301D+00
 Coeff:      0.600D+00-0.102D+00 0.109D+00
 Gap=     0.090 Goal=   None    Shift=    0.000
 RMSDP=3.41D-09 MaxDP=2.59D-07 DE= 9.00D-11 OVMax= 1.39D-09

 SCF Done:  E(RPBE1PBE) =  -1946.22890789     A.U. after   22 cycles
            NFock= 22  Conv=0.34D-08     -V/T= 1.9986
 KE= 1.948928448592D+03 PE=-1.212481478216D+04 EE= 4.452773111054D+03
 Leave Link  502 at Wed Jan 20 21:41:50 2021, MaxMem=  5368709120 cpu:      9827.8
 (Enter /usr/local/bin/G09/G09d//g09/l801.exe)
 DoSCS=F DFT=T ScalE2(SS,OS)=  1.000000  1.000000
 Range of M.O.s used for correlation:     1   827
 NBasis=   837 NAE=   128 NBE=   128 NFC=     0 NFV=     0
 NROrb=    827 NOA=   128 NOB=   128 NVA=   699 NVB=   699

 **** Warning!!: The largest alpha MO coefficient is  0.13431520D+03


 **** Warning!!: The smallest alpha delta epsilon is  0.89764416D-01

 Leave Link  801 at Wed Jan 20 21:41:51 2021, MaxMem=  5368709120 cpu:         0.5
 (Enter /usr/local/bin/G09/G09d//g09/l1002.exe)
 Minotr:  Closed shell wavefunction.
          Direct CPHF calculation.
          Differentiating once with respect to electric field.
                with respect to dipole field.
          Electric field/nuclear overlap derivatives assumed to be zero.
          Requested convergence is 1.0D-08 RMS, and 1.0D-07 maximum.
          NewPWx=F KeepS1=T KeepF1=T KeepIn=T MapXYZ=F SortEE=F KeepMc=T.
          MDV=    5368707801 using IRadAn=       1.
 Generate precomputed XC quadrature information.
          Solving linear equations separately, MaxMat=      72.
          Doing perturbations at frequencies    0.000000    0.072000    0.144000
          There are     9 degrees of freedom in the 1st order CPHF.  IDoFFX=0 NUNeed=     9.
 LinEq1:  Iter=  0 NonCon=     9 RMS=7.59D-01 Max=2.97D+02 NDo=     9
 AX will form     9 AO Fock derivatives at one time.
 FoFJK:  IHMeth= 1 ICntrl=       0 DoSepK=F KAlg= 0 I1Cent=   0 FoldK=F
 IRaf= 800000000 NMat=  18 IRICut=       1 DoRegI=T DoRafI=F ISym2E= 0.
 FoFCou: FMM=T IPFlag=           0 FMFlag=      100000 FMFlg1=        2001
         NFxFlg=           0 DoJE=F BraDBF=F KetDBF=F FulRan=T
         wScrn=  0.000000 ICntrl=       0 IOpCl=  0 I1Cent=           0 NGrid=           0
         NMat0=   18 NMatS0=      9 NMatT0=    0 NMatD0=   18 NMtDS0=    0 NMtDT0=    0
 Symmetry not used in FoFCou.
 FMM levels:  10  Number of levels for PrismC:   9
 LinEq1:  Iter=  1 NonCon=     9 RMS=2.56D+00 Max=7.32D+02 NDo=     9
 LinEq1:  Iter=  2 NonCon=     9 RMS=2.35D+01 Max=6.74D+03 NDo=     9
 LinEq1:  Iter=  3 NonCon=     9 RMS=1.51D+02 Max=4.24D+04 NDo=     9
 LinEq1:  Iter=  4 NonCon=     9 RMS=5.41D+02 Max=1.50D+05 NDo=     9
 LinEq1:  Iter=  5 NonCon=     9 RMS=1.32D+03 Max=3.23D+05 NDo=     9
 LinEq1:  Iter=  6 NonCon=     9 RMS=3.85D+03 Max=1.10D+06 NDo=     9
 LinEq1:  Iter=  7 NonCon=     9 RMS=3.96D+03 Max=1.02D+06 NDo=     9
 LinEq1:  Iter=  8 NonCon=     9 RMS=4.67D+03 Max=1.10D+06 NDo=     9
 LinEq1:  Iter=  9 NonCon=     9 RMS=9.75D+03 Max=2.05D+06 NDo=     9
 LinEq1:  Iter= 10 NonCon=     9 RMS=5.25D+03 Max=9.08D+05 NDo=     9
 LinEq1:  Iter= 11 NonCon=     9 RMS=8.08D+03 Max=1.12D+06 NDo=     9
 LinEq1:  Iter= 12 NonCon=     9 RMS=8.09D+03 Max=1.32D+06 NDo=     9
 LinEq1:  Iter= 13 NonCon=     9 RMS=8.16D+03 Max=1.65D+06 NDo=     9
 LinEq1:  Iter= 14 NonCon=     9 RMS=1.10D+04 Max=1.93D+06 NDo=     9
 LinEq1:  Iter= 15 NonCon=     9 RMS=1.04D+04 Max=1.45D+06 NDo=     9
 LinEq1:  Iter= 16 NonCon=     9 RMS=9.16D+03 Max=1.39D+06 NDo=     9
 LinEq1:  Iter= 17 NonCon=     9 RMS=8.55D+03 Max=1.15D+06 NDo=     9
 LinEq1:  Iter= 18 NonCon=     9 RMS=7.97D+03 Max=1.06D+06 NDo=     9
 LinEq1:  Iter= 19 NonCon=     9 RMS=8.83D+03 Max=1.05D+06 NDo=     9
 LinEq1:  Iter= 20 NonCon=     9 RMS=1.03D+04 Max=1.47D+06 NDo=     9
 LinEq1:  Iter= 21 NonCon=     9 RMS=1.11D+04 Max=1.49D+06 NDo=     9
 LinEq1:  Iter= 22 NonCon=     9 RMS=8.58D+03 Max=1.43D+06 NDo=     9
 LinEq1:  Iter= 23 NonCon=     9 RMS=8.86D+03 Max=1.18D+06 NDo=     9
 LinEq1:  Iter= 24 NonCon=     9 RMS=6.30D+03 Max=8.97D+05 NDo=     9
 LinEq1:  Iter= 25 NonCon=     9 RMS=5.69D+03 Max=6.81D+05 NDo=     9
 LinEq1:  Iter= 26 NonCon=     9 RMS=4.49D+03 Max=6.82D+05 NDo=     9
 LinEq1:  Iter= 27 NonCon=     9 RMS=3.40D+03 Max=6.10D+05 NDo=     9
 LinEq1:  Iter= 28 NonCon=     9 RMS=3.23D+03 Max=5.45D+05 NDo=     9
 LinEq1:  Iter= 29 NonCon=     9 RMS=2.22D+03 Max=2.78D+05 NDo=     9
 LinEq1:  Iter= 30 NonCon=     9 RMS=1.82D+03 Max=2.54D+05 NDo=     9
 LinEq1:  Iter= 31 NonCon=     9 RMS=1.55D+03 Max=1.81D+05 NDo=     9
 LinEq1:  Iter= 32 NonCon=     9 RMS=1.18D+03 Max=1.24D+05 NDo=     9
 LinEq1:  Iter= 33 NonCon=     6 RMS=7.33D+02 Max=9.63D+04 NDo=     9
 LinEq1:  Iter= 34 NonCon=     6 RMS=4.88D+02 Max=4.39D+04 NDo=     6
 LinEq1:  Iter= 35 NonCon=     6 RMS=3.20D+02 Max=4.20D+04 NDo=     6
 LinEq1:  Iter= 36 NonCon=     6 RMS=2.52D+02 Max=3.25D+04 NDo=     6
 LinEq1:  Iter= 37 NonCon=     6 RMS=1.92D+02 Max=2.11D+04 NDo=     6
 LinEq1:  Iter= 38 NonCon=     6 RMS=1.49D+02 Max=1.55D+04 NDo=     6
 LinEq1:  Iter= 39 NonCon=     6 RMS=1.10D+02 Max=1.27D+04 NDo=     6
 LinEq1:  Iter= 40 NonCon=     6 RMS=6.61D+01 Max=8.77D+03 NDo=     6
 LinEq1:  Iter= 41 NonCon=     6 RMS=4.24D+01 Max=6.98D+03 NDo=     6
 LinEq1:  Iter= 42 NonCon=     6 RMS=3.65D+01 Max=7.62D+03 NDo=     6
 LinEq1:  Iter= 43 NonCon=     6 RMS=2.34D+01 Max=3.98D+03 NDo=     6
 LinEq1:  Iter= 44 NonCon=     3 RMS=1.69D+01 Max=2.80D+03 NDo=     6
 LinEq1:  Iter= 45 NonCon=     3 RMS=1.02D+01 Max=1.76D+03 NDo=     3
 LinEq1:  Iter= 46 NonCon=     3 RMS=7.17D+00 Max=8.03D+02 NDo=     3
 LinEq1:  Iter= 47 NonCon=     3 RMS=4.81D+00 Max=5.32D+02 NDo=     3
 LinEq1:  Iter= 48 NonCon=     3 RMS=3.50D+00 Max=3.57D+02 NDo=     3
 LinEq1:  Iter= 49 NonCon=     3 RMS=2.17D+00 Max=2.34D+02 NDo=     3
 LinEq1:  Iter= 50 NonCon=     3 RMS=1.07D+00 Max=1.08D+02 NDo=     3
 LinEq1:  Iter= 51 NonCon=     3 RMS=6.78D-01 Max=7.22D+01 NDo=     3
 LinEq1:  Iter= 52 NonCon=     3 RMS=3.53D-01 Max=4.18D+01 NDo=     3
 LinEq1:  Iter= 53 NonCon=     3 RMS=2.01D-01 Max=1.91D+01 NDo=     3
 LinEq1:  Iter= 54 NonCon=     3 RMS=1.31D-01 Max=1.17D+01 NDo=     3
 LinEq1:  Iter= 55 NonCon=     3 RMS=8.12D-02 Max=9.63D+00 NDo=     3
 LinEq1:  Iter= 56 NonCon=     3 RMS=4.30D-02 Max=5.39D+00 NDo=     3
 LinEq1:  Iter= 57 NonCon=     3 RMS=2.49D-02 Max=2.59D+00 NDo=     3
 LinEq1:  Iter= 58 NonCon=     3 RMS=1.45D-02 Max=1.26D+00 NDo=     3
 LinEq1:  Iter= 59 NonCon=     3 RMS=8.66D-03 Max=8.97D-01 NDo=     3
 LinEq1:  Iter= 60 NonCon=     3 RMS=3.89D-03 Max=4.13D-01 NDo=     3
 LinEq1:  Iter= 61 NonCon=     3 RMS=1.68D-03 Max=1.81D-01 NDo=     3
 LinEq1:  Iter= 62 NonCon=     3 RMS=9.34D-04 Max=9.27D-02 NDo=     3
 LinEq1:  Iter= 63 NonCon=     3 RMS=4.79D-04 Max=4.52D-02 NDo=     3
 LinEq1:  Iter= 64 NonCon=     3 RMS=2.25D-04 Max=3.08D-02 NDo=     3
 LinEq1:  Iter= 65 NonCon=     3 RMS=1.30D-04 Max=1.72D-02 NDo=     3
 LinEq1:  Iter= 66 NonCon=     3 RMS=8.05D-05 Max=9.63D-03 NDo=     3
 LinEq1:  Iter= 67 NonCon=     3 RMS=4.83D-05 Max=5.98D-03 NDo=     3
 LinEq1:  Iter= 68 NonCon=     3 RMS=2.40D-05 Max=2.11D-03 NDo=     3
 LinEq1:  Iter= 69 NonCon=     3 RMS=1.09D-05 Max=1.12D-03 NDo=     3
 LinEq1:  Iter= 70 NonCon=     3 RMS=5.67D-06 Max=3.69D-04 NDo=     3
 LinEq1:  Iter= 71 NonCon=     3 RMS=2.84D-06 Max=2.03D-04 NDo=     3
 LinEq1:  Iter= 72 NonCon=     3 RMS=1.41D-06 Max=1.34D-04 NDo=     3
 LinEq1:  Iter= 73 NonCon=     3 RMS=5.36D-07 Max=6.45D-05 NDo=     3
 LinEq1:  Iter= 74 NonCon=     3 RMS=3.52D-07 Max=3.75D-05 NDo=     3
 LinEq1:  Iter= 75 NonCon=     3 RMS=1.94D-07 Max=2.49D-05 NDo=     3
 LinEq1:  Iter= 76 NonCon=     3 RMS=8.67D-08 Max=9.67D-06 NDo=     3
 LinEq1:  Iter= 77 NonCon=     3 RMS=4.65D-08 Max=4.92D-06 NDo=     3
 LinEq1:  Iter= 78 NonCon=     3 RMS=2.22D-08 Max=2.13D-06 NDo=     3
 LinEq1:  Iter= 79 NonCon=     3 RMS=1.46D-08 Max=1.18D-06 NDo=     3
 LinEq1:  Iter= 80 NonCon=     3 RMS=6.14D-09 Max=7.14D-07 NDo=     3
 LinEq1:  Iter= 81 NonCon=     3 RMS=2.77D-09 Max=2.80D-07 NDo=     3
 LinEq1:  Iter= 82 NonCon=     1 RMS=2.33D-09 Max=1.12D-07 NDo=     3
 LinEq1:  Iter= 83 NonCon=     0 RMS=8.86D-10 Max=4.71D-08 NDo=     1
 Linear equations converged to 1.000D-08 1.000D-07 after    83 iterations.
 FullF1:  Do perturbations    1 to     9.
 SCF Polarizability for W=    0.000000:
                1             2             3 
      1  0.407374D+03
      2  0.126899D+03  0.350413D+03
      3 -0.102959D+03 -0.141529D+03  0.386656D+03
 Isotropic polarizability for W=    0.000000      381.48 Bohr**3.
 SCF Polarizability for W=    0.072000:
                1             2             3 
      1  0.481024D+03
      2  0.193891D+03  0.421338D+03
      3 -0.181429D+03 -0.214004D+03  0.471229D+03
 Isotropic polarizability for W=    0.072000      457.86 Bohr**3.
 SCF Polarizability for W=    0.144000:
                1             2             3 
      1  0.338869D+03
      2  0.314667D+02  0.312863D+03
      3  0.202398D+02 -0.398853D+02  0.294276D+03
 Isotropic polarizability for W=    0.144000      315.34 Bohr**3.
 SCF Static Hyperpolarizability:
 K=  1 block:
                1 
      1 -0.299229D+04
 K=  2 block:
                1             2 
      1 -0.238003D+04
      2 -0.210965D+04 -0.193712D+04
 K=  3 block:
                1             2             3 
      1  0.229378D+04
      2  0.231340D+04  0.208177D+04
      3 -0.284049D+04 -0.229148D+04  0.235847D+04
 SCF Beta(-W,W;0) for W=    0.072000:
 K=  1 block:
                1             2             3 
      1 -0.194642D+05
      2 -0.985324D+04 -0.818859D+04
      3  0.419176D+04  0.846454D+04 -0.134840D+05
 K=  2 block:
                1             2             3 
      1 -0.120078D+05
      2 -0.871428D+04 -0.775425D+04
      3  0.784067D+04  0.836825D+04 -0.103251D+05
 K=  3 block:
                1             2             3 
      1  0.828151D+04
      2  0.924644D+04  0.850744D+04
      3 -0.119698D+05 -0.964819D+04  0.982830D+04
 SCF Beta(W,W;-2W) for W=    0.072000:
 K=  1 block:
                1             2             3 
      1  0.548632D+04
      2  0.613039D+04  0.526903D+04
      3 -0.737470D+04 -0.544662D+04  0.507257D+04
 K=  2 block:
                1             2             3 
      1  0.568318D+04
      2  0.633905D+04  0.547341D+04
      3 -0.785511D+04 -0.626065D+04  0.679179D+04
 K=  3 block:
                1             2             3 
      1 -0.805023D+04
      2 -0.779572D+04 -0.696423D+04
      3  0.832293D+04  0.736976D+04 -0.799637D+04
 SCF Beta(-W,W;0) for W=    0.144000:
 K=  1 block:
                1             2             3 
      1 -0.282376D+05
      2 -0.260557D+05 -0.104312D+05
      3  0.262321D+05  0.314327D+05 -0.380892D+05
 K=  2 block:
                1             2             3 
      1 -0.223162D+05
      2 -0.217534D+05 -0.917178D+04
      3  0.221031D+05  0.249700D+05 -0.272856D+05
 K=  3 block:
                1             2             3 
      1  0.210668D+05
      2  0.219135D+05  0.561689D+04
      3 -0.229085D+05 -0.246509D+05  0.240515D+05
 End of Minotr F.D. properties on file   721 Mask=      31 NFrqRd=     2 NDeriv=     1 ND12= 1 LenFil=      94:
 Frequencies=    0.000000    0.072000
 Property number 1 -- Alpha(-w,w) frequency  1    0.000000:
                 1             2             3 
      1   0.407374D+03  0.126899D+03 -0.102959D+03
      2   0.126899D+03  0.350413D+03 -0.141529D+03
      3  -0.102959D+03 -0.141529D+03  0.386656D+03
 Property number 1 -- Alpha(-w,w) frequency  2    0.072000:
                 1             2             3 
      1   0.481024D+03  0.193891D+03 -0.181429D+03
      2   0.193891D+03  0.421338D+03 -0.214004D+03
      3  -0.181429D+03 -0.214004D+03  0.471229D+03
 Property number 5 -- Beta(-w,w,0) frequency  1    0.000000:
                 1 
      1  -0.299229D+04
      2  -0.238003D+04
      3  -0.210965D+04
      4   0.229378D+04
      5   0.231340D+04
      6  -0.284049D+04
      7  -0.238003D+04
      8  -0.210965D+04
      9  -0.193712D+04
     10   0.231340D+04
     11   0.208177D+04
     12  -0.229148D+04
     13   0.229378D+04
     14   0.231340D+04
     15   0.208177D+04
     16  -0.284049D+04
     17  -0.229148D+04
     18   0.235847D+04
 Property number 5 -- Beta(-w,w,0) frequency  2    0.072000:
                 1 
      1  -0.194642D+05
      2  -0.985324D+04
      3  -0.818859D+04
      4   0.419176D+04
      5   0.846454D+04
      6  -0.134840D+05
      7  -0.120078D+05
      8  -0.871428D+04
      9  -0.775425D+04
     10   0.784067D+04
     11   0.836825D+04
     12  -0.103251D+05
     13   0.828151D+04
     14   0.924644D+04
     15   0.850744D+04
     16  -0.119698D+05
     17  -0.964819D+04
     18   0.982830D+04
 Property number 6 -- Beta(w,w,-2w) frequency  1    0.000000:
                 1 
      1  -0.299229D+04
      2  -0.238003D+04
      3  -0.210965D+04
      4   0.229378D+04
      5   0.231340D+04
      6  -0.284049D+04
      7  -0.238003D+04
      8  -0.210965D+04
      9  -0.193712D+04
     10   0.231340D+04
     11   0.208177D+04
     12  -0.229148D+04
     13   0.229378D+04
     14   0.231340D+04
     15   0.208177D+04
     16  -0.284049D+04
     17  -0.229148D+04
     18   0.235847D+04
 Property number 6 -- Beta(w,w,-2w) frequency  2    0.072000:
                 1 
      1   0.548632D+04
      2   0.613039D+04
      3   0.526903D+04
      4  -0.737470D+04
      5  -0.544662D+04
      6   0.507257D+04
      7   0.568318D+04
      8   0.633905D+04
      9   0.547341D+04
     10  -0.785511D+04
     11  -0.626065D+04
     12   0.679179D+04
     13  -0.805023D+04
     14  -0.779572D+04
     15  -0.696423D+04
     16   0.832293D+04
     17   0.736976D+04
     18  -0.799637D+04
 End of Minotr F.D. properties file   722 does not exist.
 End of Minotr F.D. properties file   788 does not exist.
 Leave Link 1002 at Thu Jan 21 06:18:06 2021, MaxMem=  5368709120 cpu:    247885.1
 (Enter /usr/local/bin/G09/G09d//g09/l601.exe)
 Copying SCF densities to generalized density rwf, IOpCl= 0 IROHF=0.

 **********************************************************************

            Population analysis using the SCF density.

 **********************************************************************

 Alpha  occ. eigenvalues --  -89.14053 -19.24287 -19.23235 -19.22900 -19.21007
 Alpha  occ. eigenvalues --  -19.10326 -19.10263 -19.09469 -14.51761 -10.33925
 Alpha  occ. eigenvalues --  -10.31513 -10.28807 -10.28453 -10.27854 -10.26778
 Alpha  occ. eigenvalues --  -10.26631 -10.24774 -10.23842 -10.23684 -10.23204
 Alpha  occ. eigenvalues --  -10.21685 -10.21679 -10.21620 -10.21603 -10.20978
 Alpha  occ. eigenvalues --  -10.20596 -10.20526 -10.19503 -10.19495 -10.19293
 Alpha  occ. eigenvalues --  -10.19223 -10.18900 -10.18820 -10.18646  -8.10002
 Alpha  occ. eigenvalues --   -6.03652  -6.03616  -6.03568  -1.19646  -1.15101
 Alpha  occ. eigenvalues --   -1.11357  -1.09898  -1.09201  -1.08906  -0.95084
 Alpha  occ. eigenvalues --   -0.94464  -0.92306  -0.90935  -0.89658  -0.89201
 Alpha  occ. eigenvalues --   -0.84626  -0.84275  -0.81229  -0.79890  -0.79469
 Alpha  occ. eigenvalues --   -0.79124  -0.76437  -0.75754  -0.74866  -0.74482
 Alpha  occ. eigenvalues --   -0.71650  -0.70310  -0.68022  -0.67042  -0.65900
 Alpha  occ. eigenvalues --   -0.65563  -0.63975  -0.63139  -0.63084  -0.62272
 Alpha  occ. eigenvalues --   -0.60149  -0.58003  -0.57699  -0.57421  -0.55842
 Alpha  occ. eigenvalues --   -0.55141  -0.54390  -0.54216  -0.53726  -0.52750
 Alpha  occ. eigenvalues --   -0.51602  -0.50078  -0.49520  -0.49032  -0.48778
 Alpha  occ. eigenvalues --   -0.48195  -0.47620  -0.47409  -0.47214  -0.46043
 Alpha  occ. eigenvalues --   -0.45752  -0.45494  -0.45279  -0.44897  -0.44410
 Alpha  occ. eigenvalues --   -0.43619  -0.43423  -0.43336  -0.42186  -0.41544
 Alpha  occ. eigenvalues --   -0.41114  -0.40723  -0.40631  -0.39813  -0.39123
 Alpha  occ. eigenvalues --   -0.38940  -0.38704  -0.38120  -0.37039  -0.36407
 Alpha  occ. eigenvalues --   -0.36069  -0.35319  -0.35000  -0.34565  -0.33938
 Alpha  occ. eigenvalues --   -0.33359  -0.29646  -0.29400  -0.28858  -0.28557
 Alpha  occ. eigenvalues --   -0.26207  -0.25605  -0.25054  -0.24877  -0.22969
 Alpha  occ. eigenvalues --   -0.21924  -0.20978  -0.19828
 Alpha virt. eigenvalues --   -0.10852  -0.08468  -0.03673  -0.02582  -0.01368
 Alpha virt. eigenvalues --   -0.01207  -0.00453   0.00239   0.00721   0.01677
 Alpha virt. eigenvalues --    0.02016   0.02648   0.03054   0.03130   0.03708
 Alpha virt. eigenvalues --    0.03773   0.03980   0.04213   0.04844   0.05556
 Alpha virt. eigenvalues --    0.05911   0.06038   0.06600   0.06935   0.07369
 Alpha virt. eigenvalues --    0.07439   0.07735   0.07947   0.08133   0.08413
 Alpha virt. eigenvalues --    0.08598   0.08740   0.09613   0.09782   0.10116
 Alpha virt. eigenvalues --    0.10219   0.10542   0.10643   0.10873   0.11336
 Alpha virt. eigenvalues --    0.11398   0.11795   0.11957   0.12453   0.12543
 Alpha virt. eigenvalues --    0.12714   0.12828   0.13080   0.13531   0.13983
 Alpha virt. eigenvalues --    0.14736   0.14800   0.15009   0.15153   0.15482
 Alpha virt. eigenvalues --    0.15605   0.15826   0.16011   0.16212   0.16574
 Alpha virt. eigenvalues --    0.16587   0.16912   0.17227   0.17389   0.17624
 Alpha virt. eigenvalues --    0.17853   0.17908   0.18209   0.18520   0.18828
 Alpha virt. eigenvalues --    0.18883   0.19003   0.19258   0.19377   0.19515
 Alpha virt. eigenvalues --    0.19680   0.19994   0.20259   0.20501   0.20622
 Alpha virt. eigenvalues --    0.20690   0.20958   0.21135   0.21309   0.21553
 Alpha virt. eigenvalues --    0.21644   0.21898   0.22058   0.22316   0.22557
 Alpha virt. eigenvalues --    0.22658   0.22856   0.22956   0.23152   0.23431
 Alpha virt. eigenvalues --    0.23539   0.23813   0.23989   0.24102   0.24265
 Alpha virt. eigenvalues --    0.24357   0.24669   0.24994   0.25034   0.25104
 Alpha virt. eigenvalues --    0.25525   0.25830   0.26041   0.26073   0.26452
 Alpha virt. eigenvalues --    0.26564   0.26840   0.27157   0.27393   0.27548
 Alpha virt. eigenvalues --    0.27630   0.27987   0.28109   0.28301   0.28508
 Alpha virt. eigenvalues --    0.28802   0.29098   0.29315   0.29594   0.29734
 Alpha virt. eigenvalues --    0.29941   0.30464   0.30621   0.30806   0.31072
 Alpha virt. eigenvalues --    0.31299   0.31391   0.31496   0.31510   0.32192
 Alpha virt. eigenvalues --    0.32596   0.32911   0.33140   0.33180   0.33268
 Alpha virt. eigenvalues --    0.33648   0.33817   0.33988   0.34226   0.34413
 Alpha virt. eigenvalues --    0.34774   0.35047   0.35352   0.35644   0.36111
 Alpha virt. eigenvalues --    0.36159   0.36584   0.36945   0.37056   0.37243
 Alpha virt. eigenvalues --    0.37415   0.37887   0.38267   0.38681   0.38846
 Alpha virt. eigenvalues --    0.39035   0.39396   0.39564   0.39935   0.40370
 Alpha virt. eigenvalues --    0.40731   0.41011   0.41311   0.41707   0.42402
 Alpha virt. eigenvalues --    0.42727   0.42809   0.42968   0.43344   0.43768
 Alpha virt. eigenvalues --    0.44245   0.44443   0.44735   0.45415   0.46104
 Alpha virt. eigenvalues --    0.46555   0.46855   0.47276   0.47764   0.48214
 Alpha virt. eigenvalues --    0.48654   0.48949   0.49327   0.49714   0.50319
 Alpha virt. eigenvalues --    0.51461   0.51991   0.52572   0.53300   0.53361
 Alpha virt. eigenvalues --    0.53926   0.54056   0.54479   0.54638   0.55083
 Alpha virt. eigenvalues --    0.55460   0.55682   0.55902   0.56032   0.56435
 Alpha virt. eigenvalues --    0.56785   0.57674   0.57903   0.58146   0.58587
 Alpha virt. eigenvalues --    0.58863   0.59605   0.59780   0.60156   0.60315
 Alpha virt. eigenvalues --    0.60800   0.61341   0.61493   0.62140   0.62673
 Alpha virt. eigenvalues --    0.62836   0.63537   0.63919   0.64238   0.64350
 Alpha virt. eigenvalues --    0.65110   0.65367   0.65490   0.65938   0.66351
 Alpha virt. eigenvalues --    0.66929   0.67328   0.67701   0.67872   0.68233
 Alpha virt. eigenvalues --    0.68673   0.69077   0.69501   0.69615   0.70335
 Alpha virt. eigenvalues --    0.70665   0.70854   0.71511   0.71673   0.72108
 Alpha virt. eigenvalues --    0.72334   0.72803   0.73186   0.73523   0.74048
 Alpha virt. eigenvalues --    0.74608   0.74856   0.75023   0.75908   0.76308
 Alpha virt. eigenvalues --    0.76659   0.76874   0.77401   0.77691   0.77873
 Alpha virt. eigenvalues --    0.78026   0.78340   0.78633   0.79050   0.79340
 Alpha virt. eigenvalues --    0.79846   0.80321   0.80447   0.80971   0.82050
 Alpha virt. eigenvalues --    0.82444   0.82743   0.83281   0.83443   0.83700
 Alpha virt. eigenvalues --    0.83791   0.84683   0.85344   0.85787   0.86360
 Alpha virt. eigenvalues --    0.86694   0.86849   0.87673   0.88920   0.89078
 Alpha virt. eigenvalues --    0.89914   0.90648   0.91241   0.91614   0.91957
 Alpha virt. eigenvalues --    0.92373   0.93019   0.93246   0.93929   0.94181
 Alpha virt. eigenvalues --    0.94532   0.95052   0.95485   0.96080   0.96797
 Alpha virt. eigenvalues --    0.96931   0.97266   0.97649   0.97946   0.98921
 Alpha virt. eigenvalues --    0.99097   0.99606   0.99948   1.00295   1.01326
 Alpha virt. eigenvalues --    1.01739   1.02100   1.02681   1.02764   1.03094
 Alpha virt. eigenvalues --    1.03540   1.04428   1.04724   1.04969   1.05402
 Alpha virt. eigenvalues --    1.06292   1.06494   1.06966   1.07278   1.07488
 Alpha virt. eigenvalues --    1.08600   1.09081   1.09621   1.09679   1.10184
 Alpha virt. eigenvalues --    1.10622   1.11895   1.12214   1.12768   1.12904
 Alpha virt. eigenvalues --    1.14102   1.14742   1.15055   1.15264   1.15634
 Alpha virt. eigenvalues --    1.16182   1.16885   1.17049   1.17383   1.17958
 Alpha virt. eigenvalues --    1.18369   1.19720   1.19942   1.20236   1.21476
 Alpha virt. eigenvalues --    1.21777   1.22213   1.22836   1.23474   1.23646
 Alpha virt. eigenvalues --    1.24669   1.25290   1.25751   1.26471   1.27007
 Alpha virt. eigenvalues --    1.27259   1.27818   1.28321   1.29127   1.30173
 Alpha virt. eigenvalues --    1.30240   1.31711   1.32238   1.33602   1.35082
 Alpha virt. eigenvalues --    1.35483   1.36275   1.38672   1.39509   1.40278
 Alpha virt. eigenvalues --    1.41115   1.41658   1.42037   1.43228   1.44096
 Alpha virt. eigenvalues --    1.44197   1.46113   1.46304   1.47755   1.48909
 Alpha virt. eigenvalues --    1.50393   1.50601   1.51530   1.52016   1.54214
 Alpha virt. eigenvalues --    1.54762   1.55139   1.55290   1.56106   1.57183
 Alpha virt. eigenvalues --    1.57416   1.57876   1.58382   1.59295   1.60148
 Alpha virt. eigenvalues --    1.61466   1.61898   1.62586   1.63612   1.64131
 Alpha virt. eigenvalues --    1.64654   1.65329   1.66409   1.66895   1.67760
 Alpha virt. eigenvalues --    1.69329   1.70064   1.70564   1.71903   1.73052
 Alpha virt. eigenvalues --    1.73782   1.74753   1.74937   1.75870   1.78222
 Alpha virt. eigenvalues --    1.78752   1.79847   1.80592   1.81221   1.82636
 Alpha virt. eigenvalues --    1.83599   1.84032   1.85512   1.85927   1.86363
 Alpha virt. eigenvalues --    1.86779   1.87795   1.87810   1.88863   1.89386
 Alpha virt. eigenvalues --    1.89912   1.90501   1.91182   1.92184   1.92659
 Alpha virt. eigenvalues --    1.93133   1.93888   1.94014   1.95685   1.96239
 Alpha virt. eigenvalues --    1.96552   1.96930   1.97542   1.98842   1.99535
 Alpha virt. eigenvalues --    2.00536   2.01287   2.02462   2.02693   2.03668
 Alpha virt. eigenvalues --    2.04635   2.06017   2.06262   2.07011   2.07871
 Alpha virt. eigenvalues --    2.10020   2.11327   2.12798   2.14836   2.16045
 Alpha virt. eigenvalues --    2.16963   2.17448   2.18731   2.19521   2.20534
 Alpha virt. eigenvalues --    2.23151   2.24450   2.25765   2.28236   2.29113
 Alpha virt. eigenvalues --    2.30426   2.31552   2.32335   2.32704   2.33536
 Alpha virt. eigenvalues --    2.34453   2.35509   2.36239   2.36808   2.37533
 Alpha virt. eigenvalues --    2.38297   2.40436   2.41394   2.42474   2.43994
 Alpha virt. eigenvalues --    2.44355   2.44798   2.46576   2.47712   2.48950
 Alpha virt. eigenvalues --    2.49221   2.50832   2.54290   2.57825   2.58714
 Alpha virt. eigenvalues --    2.59773   2.64489   2.65610   2.65729   2.66502
 Alpha virt. eigenvalues --    2.67044   2.67438   2.68465   2.69860   2.70595
 Alpha virt. eigenvalues --    2.70897   2.71313   2.71637   2.72919   2.73175
 Alpha virt. eigenvalues --    2.74369   2.75723   2.76086   2.76559   2.77495
 Alpha virt. eigenvalues --    2.77814   2.79590   2.79988   2.81454   2.83605
 Alpha virt. eigenvalues --    2.84048   2.84180   2.85140   2.86329   2.86359
 Alpha virt. eigenvalues --    2.87237   2.87625   2.89360   2.90023   2.90837
 Alpha virt. eigenvalues --    2.91163   2.92732   2.93286   2.93342   2.94273
 Alpha virt. eigenvalues --    2.94400   2.94963   2.96373   2.96622   2.97305
 Alpha virt. eigenvalues --    2.97897   2.98954   2.99617   3.00337   3.00688
 Alpha virt. eigenvalues --    3.01400   3.02054   3.02880   3.03132   3.03477
 Alpha virt. eigenvalues --    3.03750   3.04939   3.07539   3.07864   3.10952
 Alpha virt. eigenvalues --    3.13683   3.13911   3.15692   3.16312   3.17147
 Alpha virt. eigenvalues --    3.18211   3.18833   3.22610   3.25738   3.25892
 Alpha virt. eigenvalues --    3.26688   3.28246   3.29331   3.29584   3.30759
 Alpha virt. eigenvalues --    3.31676   3.32744   3.34461   3.34977   3.36707
 Alpha virt. eigenvalues --    3.38162   3.38444   3.38756   3.42068   3.43144
 Alpha virt. eigenvalues --    3.43650   3.44215   3.44408   3.45516   3.45936
 Alpha virt. eigenvalues --    3.48550   3.51095   3.51682   3.52915   3.54542
 Alpha virt. eigenvalues --    3.55838   3.56828   3.58149   3.58238   3.59755
 Alpha virt. eigenvalues --    3.60388   3.60972   3.64358   3.66408   3.67969
 Alpha virt. eigenvalues --    3.70881   3.74678   3.74830   3.75112   3.76125
 Alpha virt. eigenvalues --    3.76675   3.78440   3.79617   3.82495   3.83146
 Alpha virt. eigenvalues --    3.83937   3.86291   3.86684   3.89921   3.94010
 Alpha virt. eigenvalues --    3.94569   3.95420   4.04040   4.05377   4.10048
 Alpha virt. eigenvalues --    4.11631   4.17125   4.18834   4.24311   4.26662
 Alpha virt. eigenvalues --    4.27475   4.28543   4.43287   4.44967   4.69165
 Alpha virt. eigenvalues --    4.83062   4.84699   4.86750   4.87367   5.00001
 Alpha virt. eigenvalues --    5.02539   5.05556   5.12855   5.16663   5.17359
 Alpha virt. eigenvalues --    5.19058   5.20712   5.22910   5.24358   5.26269
 Alpha virt. eigenvalues --    5.29625   5.31913   5.33206   5.33651   5.34832
 Alpha virt. eigenvalues --    5.43037   5.46236   5.50923   5.51870   5.72820
 Alpha virt. eigenvalues --    5.90108   8.48489  17.64894  17.71350  17.72471
 Alpha virt. eigenvalues --   23.53657  23.55546  23.61475  23.75742  23.76783
 Alpha virt. eigenvalues --   23.81457  23.86477  23.92294  24.00526  24.01835
 Alpha virt. eigenvalues --   24.03241  24.03714  24.06239  24.13864  24.16723
 Alpha virt. eigenvalues --   24.17289  24.17324  24.21524  24.24958  24.25074
 Alpha virt. eigenvalues --   24.26693  24.30211  24.32829  24.33390  24.33679
 Alpha virt. eigenvalues --   35.65055  49.95397  49.96661  50.07121  50.12683
 Alpha virt. eigenvalues --   50.15169  50.15730  50.21841 189.80068
 Electronic spatial extent (au):  <R**2>=         155310.3157
 Charge=              0.0000 electrons
 Dipole moment (field-independent basis, Debye):
    X=            -17.0975    Y=             -3.1399    Z=             -7.4822  Tot=             18.9252
 Quadrupole moment (field-independent basis, Debye-Ang):
   XX=           -438.9558   YY=           -209.6675   ZZ=           -311.0594
   XY=            -58.2345   XZ=           -219.6225   YZ=            -64.4443
 Traceless Quadrupole moment (field-independent basis, Debye-Ang):
   XX=           -119.0616   YY=            110.2267   ZZ=              8.8348
   XY=            -58.2345   XZ=           -219.6225   YZ=            -64.4443
 Octapole moment (field-independent basis, Debye-Ang**2):
  XXX=          -8097.5217  YYY=          -2116.1673  ZZZ=          -5882.6567  XYY=          -1955.6386
  XXY=          -1293.2325  XXZ=          -4490.1321  XZZ=          -4409.0858  YZZ=          -1573.3897
  YYZ=          -1688.2079  XYZ=           -754.7025
 Hexadecapole moment (field-independent basis, Debye-Ang**3):
 XXXX=        -139806.9281 YYYY=         -19354.1559 ZZZZ=         -90951.0650 XXXY=         -26684.2550
 XXXZ=         -76147.4586 YYYX=         -21478.7314 YYYZ=         -14237.4924 ZZZX=         -70373.7531
 ZZZY=         -24639.8367 XXYY=         -22609.3239 XXZZ=         -66323.3413 YYZZ=         -18335.5604
 XXYZ=         -12778.1124 YYXZ=         -15399.5102 ZZXY=         -16566.2547
 N-N= 3.776884314618D+03 E-N=-1.212481478207D+04  KE= 1.948928448592D+03
  Exact polarizability: 407.374 126.899 350.413-102.959-141.529 386.656
 Approx polarizability: 567.643 161.403 575.664-167.653-209.828 607.211
 No NMR shielding tensors so no spin-rotation constants.
 Leave Link  601 at Thu Jan 21 06:18:08 2021, MaxMem=  5368709120 cpu:         9.7
 (Enter /usr/local/bin/G09/G09d//g09/l602.exe)
 FitSet:  NAtFit=    61 NAtPot=    61 NAtFrz=     0 MDM=    65 TotChg=   0.00000
 Breneman (CHELPG) radii used.
 Generate Potential Derived Charges using the Breneman model, NDens= 1.
 Grid spacing= 0.300 Box extension= 2.800
 NStep X,Y,Z=   62     50     52   Total possible points=      161200
 Number of Points to Fit=   30042

 **********************************************************************

            Electrostatic Properties Using The SCF Density

 **********************************************************************

       Atomic Center    1 is at   4.981328  0.071552 10.993252
       Atomic Center    2 is at   5.237190 -0.321152 11.796859
       Atomic Center    3 is at   3.721703 -0.115648 10.538604
       Atomic Center    4 is at   3.115443 -0.622336 11.027606
       Atomic Center    5 is at   3.348624  0.456768  9.338043
       Atomic Center    6 is at   2.486605  0.336960  9.009138
       Atomic Center    7 is at   4.260512  1.200576  8.637825
       Atomic Center    8 is at   4.008560  1.584128  7.828959
       Atomic Center    9 is at   5.554116  1.395680  9.108582
       Atomic Center   10 is at   6.571241  2.139654  8.393078
       Atomic Center   11 is at   7.424292  2.184832  8.762582
       Atomic Center   12 is at   6.352534  2.762240  7.236733
       Atomic Center   13 is at   5.487633  2.713152  6.900267
       Atomic Center   14 is at   7.313628  3.510208  6.440030
       Atomic Center   15 is at   6.859881  4.162080  5.285657
       Atomic Center   16 is at   5.964942  4.086784  5.044526
       Atomic Center   17 is at   7.706735  4.910298  4.500788
       Atomic Center   18 is at   9.054207  5.005312  4.845144
       Atomic Center   19 is at   9.516534  4.350528  5.975355
       Atomic Center   20 is at  10.415511  4.407104  6.204980
       Atomic Center   21 is at   8.656140  3.617536  6.763017
       Atomic Center   22 is at   8.980968  3.189056  7.521586
       Atomic Center   23 is at   7.209337  0.995072 10.903999
       Atomic Center   24 is at   7.243593  0.545792 11.752479
       Atomic Center   25 is at   7.874112  0.624832 10.319170
       Atomic Center   26 is at   7.379610  1.931072 11.030893
       Atomic Center   27 is at  11.211774  5.821504  4.267876
       Atomic Center   28 is at  11.572521  4.932928  4.304859
       Atomic Center   29 is at  11.643778  6.314048  3.566836
       Atomic Center   30 is at  11.360398  6.262464  5.106986
       Atomic Center   31 is at   5.874834  0.814528 10.306020
       Atomic Center   32 is at   7.303978  5.576563  3.386193
       Atomic Center   33 is at   9.824057  5.755027  4.009650
       Atomic Center   34 is at   6.491451  5.358080  3.188784
       Atomic Center   35 is at  11.625734  3.489158  8.897037
       Atomic Center   36 is at  11.799321  4.840243  8.824879
       Atomic Center   37 is at  11.333829  5.398848  9.405271
       Atomic Center   38 is at  12.684164  5.393856  7.871531
       Atomic Center   39 is at  12.895367  6.789120  7.750719
       Atomic Center   40 is at  12.443058  7.374848  8.313851
       Atomic Center   41 is at  13.756273  7.278336  6.816602
       Atomic Center   42 is at  13.881943  8.196864  6.744115
       Atomic Center   43 is at  14.450900  6.418048  5.966807
       Atomic Center   44 is at  15.035548  6.766656  5.332174
       Atomic Center   45 is at  14.279507  5.076032  6.059348
       Atomic Center   46 is at  14.754396  4.512768  5.493257
       Atomic Center   47 is at  13.388097  4.521920  7.004971
       Atomic Center   48 is at  13.186172  3.129984  7.116085
       Atomic Center   49 is at  13.649195  2.551744  6.553445
       Atomic Center   50 is at  12.324882  2.624128  8.035244
       Atomic Center   51 is at  12.196412  1.704768  8.095239
       Atomic Center   52 is at   9.413483  3.682848 10.235176
       Atomic Center   53 is at  11.304968  2.659072 11.327088
       Atomic Center   54 is at  10.131317  1.509414  9.570298
       Atomic Center   55 is at  10.537122  2.790195 10.108447
       Atomic Center   56 is at   3.560232  2.189824  5.300286
       Atomic Center   57 is at   4.022351  2.146560  4.620450
       Atomic Center   58 is at   3.325427  3.020160  5.397922
       Atomic Center   59 is at   4.825874  4.922944  2.761915
       Atomic Center   60 is at   4.705227  4.293120  2.368577
       Atomic Center   61 is at   4.096599  5.366400  2.843607
   30042 points will be used for fitting atomic charges
 Fitting point charges to electrostatic potential
 Charges from ESP fit, RMS=   0.00408 RRMS=   0.10860:
 ESP charges:
               1
     1  C    0.061337
     2  H    0.138047
     3  C   -0.246379
     4  H    0.162526
     5  C    0.099753
     6  H    0.105312
     7  C   -0.404597
     8  H    0.281457
     9  C    0.447467
    10  C   -0.463344
    11  H    0.287233
    12  C    0.030334
    13  H    0.090053
    14  C    0.089903
    15  C   -0.469675
    16  H    0.196237
    17  C    0.373791
    18  C    0.307627
    19  C   -0.356357
    20  H    0.213057
    21  C   -0.027138
    22  H    0.056907
    23  C   -0.068224
    24  H    0.097883
    25  H    0.122700
    26  H    0.113888
    27  C    0.141076
    28  H   -0.002245
    29  H    0.047615
    30  H    0.025635
    31  N   -0.106215
    32  O   -0.845813
    33  O   -0.301734
    34  H    0.709187
    35  C   -0.085722
    36  C   -0.189243
    37  H    0.124365
    38  C    0.147518
    39  C   -0.241470
    40  H    0.153530
    41  C   -0.096458
    42  H    0.103759
    43  C   -0.104783
    44  H    0.109417
    45  C   -0.245657
    46  H    0.139792
    47  C    0.198236
    48  C   -0.319858
    49  H    0.164020
    50  C   -0.018007
    51  H    0.092925
    52  O   -0.749717
    53  O   -0.754426
    54  O   -0.765723
    55  S    1.485686
    56  O   -0.941836
    57  H    0.476836
    58  H    0.456021
    59  O   -1.103085
    60  H    0.531391
    61  H    0.525185
 Sum of ESP charges =   0.00000
 ESP charges with hydrogens summed into heavy atoms:
               1
     1  C    0.199383
     3  C   -0.083853
     5  C    0.205065
     7  C   -0.123140
     9  C    0.447467
    10  C   -0.176110
    12  C    0.120387
    14  C    0.089903
    15  C   -0.273438
    17  C    0.373791
    18  C    0.307627
    19  C   -0.143300
    21  C    0.029769
    23  C    0.266247
    27  C    0.212081
    31  N   -0.106215
    32  O   -0.136625
    33  O   -0.301734
    35  C   -0.085722
    36  C   -0.064878
    38  C    0.147518
    39  C   -0.087940
    41  C    0.007300
    43  C    0.004634
[...]
     1         -3.31803889         -4.10427328        -23.79908622
     6         -5.49048657         -2.82381772        -20.96482385
     1         -6.44376024         -1.72631472        -21.95177267
     6        -13.16256689          3.03876761        -20.76638448
     1        -14.49303759          4.14400738        -21.31791576
     1        -11.56753874          3.67620328        -21.34828927
     1        -13.43564142          1.37922455        -21.44533946
     6          0.32649024         -7.17006913        -24.15469684
     1          0.72669076         -5.43920524        -24.51961158
     1          1.76219586         -8.21458094        -24.52289132
     1         -1.07898507         -7.69367456        -25.17358992
     7        -13.15180747          2.91484405        -17.98473557
     8         -1.18379715         -7.78600253        -16.74772754
     8         -0.30767778         -7.40957725        -21.57179587
     1         -1.43976442         -7.60810181        -15.14458087
     6         -6.77834677         -1.31413944        -27.58866816
     6         -6.79325499         -3.80434055        -28.25470583
     1         -8.26262908         -4.75165109        -28.06876247
     6         -4.58399900         -4.94916195        -29.22663970
     6         -4.49530657         -7.52882083        -29.93439730
     1         -5.93037919         -8.52911070        -29.76656876
     6         -2.32458603         -8.55317977        -30.85964322
     1         -2.28871320        -10.25192147        -31.30801356
     6         -0.15431248         -7.08496916        -31.14091136
     1          1.31697187         -7.81104161        -31.77418850
     6         -0.17432246         -4.60473199        -30.49669103
     1          1.27895335         -3.64239970        -30.70790084
     6         -2.37543998         -3.46274122        -29.50761797
     6         -2.44097380         -0.89040449        -28.80949787
     1         -0.99985718          0.09834334        -28.99833278
     6         -4.58308121          0.16001154        -27.86720407
     1         -4.59965489          1.85580957        -27.40445976
     8        -10.83742485         -1.70246803        -24.87233805
     8        -11.01007934          0.92031707        -28.59631679
     8         -8.69808543          2.26096357        -24.91967702
    16         -9.55850039          0.13948057        -26.41608648
     8         -6.70064935         -1.67207726        -10.72455464
     1         -5.16875775         -1.71127172        -10.99201535
     1         -7.22006413         -3.22728334        -10.65696605
     8         -1.92913819         -7.27396486        -11.84573406
     1         -1.22441040         -6.25505969        -11.14843163
     1         -2.73065707         -8.21786749        -10.80076951

 Electric dipole moment (dipole orientation):
 (Debye = 10**-18 statcoulomb cm , SI units = C m)
                  (au)            (Debye)         (10**-30 SI)
   Tot        0.744576D+01      0.189252D+02      0.631278D+02
   x          0.000000D+00      0.000000D+00      0.000000D+00
   y          0.000000D+00      0.000000D+00      0.000000D+00
   z          0.744576D+01      0.189252D+02      0.631278D+02

 Dipole polarizability, Alpha (dipole orientation).
 (esu units = cm**3 , SI units = C**2 m**2 J**-1)
 Alpha(0;0):
               (au)            (10**-24 esu)      (10**-40 SI)
   iso        0.381481D+03      0.565297D+02      0.628978D+02
   aniso      0.377752D+03      0.559771D+02      0.622830D+02
   xx         0.428241D+03      0.634587D+02      0.706073D+02
   yx        -0.175906D+03     -0.260665D+02     -0.290029D+02
   yy         0.367709D+03      0.544888D+02      0.606270D+02
   zx        -0.991992D+02     -0.146998D+02     -0.163557D+02
   zy         0.710647D+02      0.105307D+02      0.117170D+02
   zz         0.348494D+03      0.516415D+02      0.574589D+02
 Alpha(-w;w) w=  632.8nm:
                  (au)         (10**-24 esu)      (10**-40 SI)
   iso        0.457864D+03      0.678484D+02      0.754915D+02
   aniso      0.593293D+03      0.879169D+02      0.978208D+02
   xx         0.549584D+03      0.814400D+02      0.906142D+02
   yx        -0.266542D+03     -0.394975D+02     -0.439468D+02
   yy         0.445710D+03      0.660474D+02      0.734876D+02
   zx        -0.158567D+03     -0.234971D+02     -0.261441D+02
   zy         0.117040D+03      0.173436D+02      0.192974D+02
   zz         0.378297D+03      0.560578D+02      0.623727D+02

 First dipole hyperpolarizability, Beta (dipole orientation).
 ||, _|_  parallel and perpendicular components, (z) with respect to z axis,
 vector components x,y,z.  Values do not include the 1/n! factor of 1/2.
 (esu units = statvolt**-1 cm**4 , SI units = C**3 m**3 J**-2)
 Beta(0;0,0):
               (au)            (10**-30 esu)      (10**-50 SI)
   || (z)     0.336568D+04      0.290769D+02      0.107916D+02
   _|_(z)     0.112189D+04      0.969229D+01      0.359720D+01
   x         -0.260116D+05     -0.224720D+03     -0.834025D+02
   y          0.202270D+05      0.174745D+03      0.648551D+02
   z          0.168284D+05      0.145384D+03      0.539580D+02
   ||         0.739981D+04      0.639286D+02      0.237265D+02
   xxx       -0.471004D+04     -0.406911D+02     -0.151021D+02
   xxy        0.359107D+04      0.310241D+02      0.115143D+02
   yxy       -0.276434D+04     -0.238817D+02     -0.886347D+01
   yyy        0.218592D+04      0.188847D+02      0.700886D+01
   xxz        0.259898D+04      0.224532D+02      0.833328D+01
   yxz       -0.200936D+04     -0.173593D+02     -0.644274D+01
   yyz        0.154616D+04      0.133576D+02      0.495755D+01
   zxz       -0.119614D+04     -0.103337D+02     -0.383527D+01
   zyz        0.965336D+03      0.833975D+01      0.309522D+01
   zzz        0.146433D+04      0.126507D+02      0.469517D+01
 Beta(-w;w,0) w=  632.8nm:
                  (au)         (10**-30 esu)      (10**-50 SI)
   || (z)     0.191031D+05      0.165036D+03      0.612514D+02
   _|_(z)     0.626466D+04      0.541218D+02      0.200868D+02
   x         -0.105816D+06     -0.914168D+03     -0.339285D+03
   y          0.817304D+05      0.706087D+03      0.262057D+03
   z          0.955155D+05      0.825179D+03      0.306257D+03
   ||         0.328634D+05      0.283914D+03      0.105372D+03
   xxx       -0.190449D+05     -0.164533D+03     -0.610648D+02
   yxx        0.146054D+05      0.126180D+03      0.468303D+02
   yyx       -0.112287D+05     -0.970074D+02     -0.360033D+02
   zxx        0.988651D+04      0.854118D+02      0.316997D+02
   zyx       -0.756463D+04     -0.653525D+02     -0.242549D+02
   zzx       -0.761619D+04     -0.657980D+02     -0.244203D+02
   xxy        0.147934D+05      0.127804D+03      0.474331D+02
   yxy       -0.114272D+05     -0.987225D+02     -0.366399D+02
   yyy        0.889192D+04      0.768192D+02      0.285107D+02
   zxy       -0.779005D+04     -0.673000D+02     -0.249777D+02
   zyy        0.597131D+04      0.515875D+02      0.191462D+02
   zzy        0.580550D+04      0.501550D+02      0.186145D+02
   xxz        0.969585D+04      0.837646D+02      0.310884D+02
   yxz       -0.753375D+04     -0.650857D+02     -0.241559D+02
   yyz        0.585285D+04      0.505640D+02      0.187663D+02
   zxz       -0.349100D+04     -0.301595D+02     -0.111934D+02
   zyz        0.262243D+04      0.226558D+02      0.840847D+01
   zzz        0.160837D+05      0.138951D+03      0.515702D+02
 Beta(-2w;w,w) w=  632.8nm:
                  (au)         (10**-30 esu)      (10**-50 SI)
   || (z)    -0.675517D+04     -0.583594D+02     -0.216595D+02
   _|_(z)    -0.712243D+03     -0.615323D+01     -0.228371D+01
   x          0.771656D+05      0.666651D+03      0.247421D+03
   y         -0.597596D+05     -0.516276D+03     -0.191611D+03
   z         -0.337759D+05     -0.291797D+03     -0.108298D+03
   ||         0.206558D+05      0.178450D+03      0.662300D+02
   xxx        0.135578D+05      0.117129D+03      0.434713D+02
   yxx       -0.115200D+05     -0.995236D+02     -0.369372D+02
   zxx       -0.518375D+04     -0.447836D+02     -0.166210D+02
   xyx       -0.106679D+05     -0.921622D+02     -0.342051D+02
   yyx        0.871761D+04      0.753134D+02      0.279518D+02
   zyx        0.393289D+04      0.339771D+02      0.126103D+02
   xyy        0.838195D+04      0.724135D+02      0.268756D+02
   yyy       -0.646579D+04     -0.558594D+02     -0.207317D+02
   zyy       -0.298778D+04     -0.258121D+02     -0.957989D+01
   xzx       -0.782397D+04     -0.675930D+02     -0.250865D+02
   yzx        0.612066D+04      0.528777D+02      0.196250D+02
   zzx        0.359220D+04      0.310338D+02      0.115179D+02
   xzy        0.648450D+04      0.560210D+02      0.207916D+02
   yzy       -0.496600D+04     -0.429024D+02     -0.159228D+02
   zzy       -0.289020D+04     -0.249691D+02     -0.926704D+01
   xzz        0.349059D+04      0.301560D+02      0.111921D+02
   yzz       -0.172607D+04     -0.149119D+02     -0.553439D+01
   zzz       -0.812852D+01     -0.702241D-01     -0.260630D-01

 Second dipole hyperpolarizability, Gamma (dipole orientation).
 ||, _|_  isotropic parallel and perpendicular components.
 Values do not include the 1/n! factor of 1/6.
 (esu units = statvolt**-2 cm**5 , SI units = C**4 m**4 J**-3)
 Gamma(0;0,0,0):
               (au)            (10**-36 esu)      (10**-61 SI)
   ||         0.309208D+06      0.155739D+03      0.192803D+03
   _|_        0.103069D+06      0.519130D+02      0.642678D+02
   xxxx       0.314458D+06      0.158383D+03      0.196077D+03
   xxyx      -0.200609D+06     -0.101041D+03     -0.125088D+03
   xxyy       0.166405D+06      0.838131D+02      0.103760D+03
   yxyy      -0.128814D+06     -0.648798D+02     -0.803206D+02
   yyyy       0.150405D+06      0.757545D+02      0.937833D+02
   xxzx      -0.147422D+06     -0.742522D+02     -0.919235D+02
   xxzy       0.110272D+06      0.555405D+02      0.687585D+02
   yxzy      -0.896871D+05     -0.451727D+02     -0.559233D+02
   yyzy       0.755072D+05      0.380307D+02      0.470816D+02
   xxzz       0.941867D+05      0.474390D+02      0.587290D+02
   yxzz      -0.587426D+05     -0.295868D+02     -0.366282D+02
   yyzz       0.695405D+05      0.350254D+02      0.433612D+02
   zxzz      -0.358416D+05     -0.180523D+02     -0.223486D+02
   zyzz       0.255377D+05      0.128625D+02      0.159237D+02
   zzzz       0.420930D+06      0.212010D+03      0.262466D+03
 Gamma(-w;w,0,0) w=  632.8nm:
                  (au)         (10**-36 esu)      (10**-61 SI)
   ||        -0.682081D+07     -0.343543D+04     -0.425303D+04
   _|_       -0.193146D+07     -0.972817D+03     -0.120434D+04
   xxxx       0.320180D+07      0.161265D+04      0.199645D+04
   yxxx      -0.240506D+07     -0.121136D+04     -0.149965D+04
   yyxx       0.186244D+07      0.938056D+03      0.116130D+04
   zxxx      -0.175345D+07     -0.883161D+03     -0.109335D+04
   zyxx       0.132997D+07      0.669864D+03      0.829285D+03
   zzxx      -0.356082D+06     -0.179348D+03     -0.222031D+03
   xxyx      -0.246944D+07     -0.124378D+04     -0.153979D+04
   yxyx       0.192090D+07      0.967497D+03      0.119775D+04
   yyyx      -0.148788D+07     -0.749399D+03     -0.927748D+03
   zxyx       0.137074D+07      0.690398D+03      0.854706D+03
   zyyx      -0.105686D+07     -0.532310D+03     -0.658994D+03
   zzyx       0.942863D+05      0.474892D+02      0.587911D+02
   xxyy       0.198654D+07      0.100056D+04      0.123868D+04
   yxyy      -0.154669D+07     -0.779020D+03     -0.964420D+03
   yyyy       0.126722D+07      0.638262D+03      0.790162D+03
   zxyy      -0.104836D+07     -0.528028D+03     -0.653693D+03
   zyyy       0.816427D+06      0.411209D+03      0.509073D+03
   zzyy       0.505989D+06      0.254851D+03      0.315503D+03
   xxzx      -0.139432D+07     -0.702279D+03     -0.869414D+03
   yxzx       0.105151D+07      0.529616D+03      0.655659D+03
   yyzx      -0.808382D+06     -0.407157D+03     -0.504057D+03
   zxzx       0.185218D+07      0.932888D+03      0.115491D+04
   zyzx      -0.142529D+07     -0.717877D+03     -0.888725D+03
   zzzx       0.969418D+07      0.488266D+04      0.604469D+04
   xxzy       0.112315D+07      0.565699D+03      0.700329D+03
   yxzy      -0.874254D+06     -0.440335D+03     -0.545131D+03
   yyzy       0.687608D+06      0.346327D+03      0.428750D+03
   zxzy      -0.773255D+06     -0.389465D+03     -0.482154D+03
   zyzy       0.612658D+06      0.308577D+03      0.382016D+03
   zzzy      -0.726722D+06     -0.366028D+03     -0.453139D+03
   xxzz       0.517050D+06      0.260422D+03      0.322400D+03
   yxzz      -0.296401D+06     -0.149288D+03     -0.184817D+03
   yyzz       0.209554D+06      0.105546D+03      0.130665D+03
   zxzz      -0.525697D+07     -0.264778D+04     -0.327792D+04
   zyzz       0.424908D+07      0.214013D+04      0.264946D+04
   zzzz      -0.458647D+08     -0.231006D+05     -0.285984D+05
 Gamma(-2w;w,w,0) w=  632.8nm:
                  (au)         (10**-36 esu)      (10**-61 SI)
   ||        -0.614345D+08     -0.309427D+05     -0.383068D+05
   _|_        0.359825D+08      0.181233D+05     -0.120434D+04
   xxxx      -0.875324D+07     -0.440874D+04     -0.545798D+04
   yxxx       0.897254D+07      0.451919D+04      0.559472D+04
   zxxx      -0.504977D+07     -0.254342D+04     -0.314873D+04
   xyxx       0.150233D+08      0.756677D+04      0.936759D+04
   yyxx      -0.109617D+08     -0.552107D+04     -0.683503D+04
   zyxx       0.664318D+07      0.334597D+04      0.414228D+04
   xyyx      -0.137931D+08     -0.694714D+04     -0.860049D+04
   yyyx       0.830105D+07      0.418099D+04      0.517602D+04
   zyyx      -0.578112D+07     -0.291177D+04     -0.360475D+04
   xzxx      -0.183468D+08     -0.924070D+04     -0.114399D+05
   yzxx       0.137542D+08      0.692756D+04      0.857626D+04
   zzxx      -0.563787D+07     -0.283962D+04     -0.351542D+04
   xzyx       0.259298D+08      0.130601D+05      0.161682D+05
   yzyx      -0.206097D+08     -0.103805D+05     -0.128509D+05
   zzyx       0.836064D+07      0.421100D+04      0.521317D+04
   xzzx       0.698983D+09      0.352057D+06      0.435843D+06
   yzzx      -0.510651D+09     -0.257199D+06     -0.318410D+06
   zzzx       0.248778D+09      0.125302D+06      0.155123D+06
   xxxy      -0.497328D+07     -0.250489D+04     -0.310103D+04
   yxxy       0.239917D+07      0.120839D+04      0.149597D+04
   zxxy      -0.160152D+06     -0.806635D+02     -0.998606D+02
   xyxy       0.553410D+07      0.278736D+04      0.345072D+04
   yyxy      -0.397120D+07     -0.200017D+04     -0.247619D+04
   zyxy       0.770017D+06      0.387834D+03      0.480135D+03
   xyyy      -0.449986D+07     -0.226644D+04     -0.280583D+04
   yyyy       0.417866D+07      0.210466D+04      0.260555D+04
   zyyy      -0.674848D+06     -0.339901D+03     -0.420794D+03
   xzxy      -0.355562D+07     -0.179086D+04     -0.221707D+04
   yzxy       0.244490D+07      0.123142D+04      0.152449D+04
   zzxy      -0.222205D+07     -0.111918D+04     -0.138554D+04
   xzyy       0.639454D+07      0.322073D+04      0.398724D+04
   yzyy      -0.399003D+07     -0.200966D+04     -0.248793D+04
   zzyy       0.288106D+07      0.145110D+04      0.179645D+04
   xzzy       0.180263D+09      0.907928D+05      0.112401D+06
   yzzy      -0.128559D+09     -0.647512D+05     -0.801613D+05
   zzzy       0.654127D+08      0.329464D+05      0.407873D+05
   xxxz       0.238417D+08      0.120083D+05      0.148662D+05
   yxxz      -0.188901D+08     -0.951437D+04     -0.117787D+05
   zxxz       0.918264D+07      0.462502D+04      0.572573D+04
   xyxz      -0.355412D+08     -0.179010D+05     -0.221613D+05
   yyxz       0.257835D+08      0.129864D+05      0.160770D+05
   zyxz      -0.130658D+08     -0.658085D+04     -0.814703D+04
   xyyz       0.316946D+08      0.159636D+05      0.197628D+05
   yyyz      -0.218092D+08     -0.109846D+05     -0.135989D+05
   zyyz       0.115810D+08      0.583298D+04      0.722117D+04
   xzxz       0.385991D+08      0.194412D+05      0.240680D+05
   yzxz      -0.275169D+08     -0.138594D+05     -0.171578D+05
   zzxz       0.138849D+08      0.699341D+04      0.865777D+04
   xzyz      -0.569329D+08     -0.286754D+05     -0.354998D+05
   yzyz       0.412335D+08      0.207681D+05      0.257107D+05
   zzyz      -0.204594D+08     -0.103048D+05     -0.127572D+05
   xzzz      -0.151885D+10     -0.765000D+06     -0.947063D+06
   yzzz       0.110219D+10      0.555142D+06      0.687260D+06
   zzzz      -0.543628D+09     -0.273809D+06     -0.338973D+06

 ----------------------------------------------------------------------
 1\1\GINC-FLAME4\SP\RPBE1PBE\6-311+G(d)\C25H27N1O7S1\DANIELMACHADO\23-J
 an-2021\0\\#p PBE1PBE/6-311+g(d) polar=gamma pop=chelpg density=curren
 t NoSymm\\ONL_VSNS_0_PBE1PBE\\0,1\C,0,4.981328,0.071552,10.993252\H,0,
 5.23719,-0.321152,11.796859\C,0,3.721703,-0.115648,10.538604\H,0,3.115
 443,-0.622336,11.027606\C,0,3.348624,0.456768,9.338043\H,0,2.486605,0.
 33696,9.009138\C,0,4.260512,1.200576,8.637825\H,0,4.00856,1.584128,7.8
 28959\C,0,5.554116,1.39568,9.108582\C,0,6.571241,2.139654,8.393078\H,0
 ,7.424292,2.184832,8.762582\C,0,6.352534,2.76224,7.236733\H,0,5.487633
 ,2.713152,6.900267\C,0,7.313628,3.510208,6.44003\C,0,6.859881,4.16208,
 5.285657\H,0,5.964942,4.086784,5.044526\C,0,7.706735,4.910298,4.500788
 \C,0,9.054207,5.005312,4.845144\C,0,9.516534,4.350528,5.975355\H,0,10.
 415511,4.407104,6.20498\C,0,8.65614,3.617536,6.763017\H,0,8.980968,3.1
 89056,7.521586\C,0,7.209337,0.995072,10.903999\H,0,7.243593,0.545792,1
 1.752479\H,0,7.874112,0.624832,10.31917\H,0,7.37961,1.931072,11.030893
 \C,0,11.211774,5.821504,4.267876\H,0,11.572521,4.932928,4.304859\H,0,1
 1.643778,6.314048,3.566836\H,0,11.360398,6.262464,5.106986\N,0,5.87483
 4,0.814528,10.30602\O,0,7.303978,5.576563,3.386193\O,0,9.824057,5.7550
 27,4.00965\H,0,6.491451,5.35808,3.188784\C,0,11.625734,3.489158,8.8970
 37\C,0,11.799321,4.840243,8.824879\H,0,11.333829,5.398848,9.405271\C,0
 ,12.684164,5.393856,7.871531\C,0,12.895367,6.78912,7.750719\H,0,12.443
 058,7.374848,8.313851\C,0,13.756273,7.278336,6.816602\H,0,13.881943,8.
 196864,6.744115\C,0,14.4509,6.418048,5.966807\H,0,15.035548,6.766656,5
 .332174\C,0,14.279507,5.076032,6.059348\H,0,14.754396,4.512768,5.49325
 7\C,0,13.388097,4.52192,7.004971\C,0,13.186172,3.129984,7.116085\H,0,1
 3.649195,2.551744,6.553445\C,0,12.324882,2.624128,8.035244\H,0,12.1964
 12,1.704768,8.095239\O,0,9.413483,3.682848,10.235176\O,0,11.304968,2.6
 59072,11.327088\O,0,10.131317,1.509414,9.570298\S,0,10.537122,2.790195
 ,10.108447\O,0,3.560232,2.189824,5.300286\H,0,4.022351,2.14656,4.62045
 \H,0,3.325427,3.02016,5.397922\O,0,4.825874,4.922944,2.761915\H,0,4.70
 5227,4.29312,2.368577\H,0,4.096599,5.3664,2.843607\\Version=EM64L-G09R
 evD.01\HF=-1946.2289079\RMSD=3.413e-09\Dipole=-6.726658,-1.2353227,-2.
 9437128\Polar=407.374486,126.8986145,350.412794,-102.9592179,-141.5292
 411,386.6563752\HyperPolar=-2992.2906076,-2380.0255458,-2109.6489586,-
 1937.1207257,2293.775981,2313.3959618,2081.7692827,-2840.4943352,-2291
 .4754352,2358.4717259\DQPolar=9396.1361918,-2447.5597531,-6948.5764387
 ,4552.9354821,4090.5967668,1197.0464756,2373.8365554,3191.3140163,-556
 5.1505718,6868.2541269,-196.3970657,4197.9574989,-5448.7087988,-3621.1
 41751,9069.8505498,-2683.6550127,4750.440694,424.7017305\Quadrupole=-8
 8.5193664,81.9508796,6.5684869,-43.2959325,-163.2839653,-47.9127909\PG
 =C01 [X(C25H27N1O7S1)]\\@


 WE ARE PERHAPS NOT FAR REMOVED FROM THE TIME WHEN WE SHALL BE ABLE TO SUBMIT
 THE BULK OF CHEMICAL PHENOMENA TO CALCULATION.

            -- JOSEPH LOUIS GAY-LUSSAC
               MEMOIRES DE LA SOCIETE D'ARCUEIL, 2, 207 (1808)
 Job cpu time:      20 days 18 hours 23 minutes 37.6 seconds.
 File lengths (MBytes):  RWF=   5795 Int=      0 D2E=      0 Chk=    122 Scr=      1
 Normal termination of Gaussian 09 at Sat Jan 23 11:39:28 2021.
Sat Jan 23 11:39:28 -02 2021
