Wed Jan 13 18:22:19 -02 2021
flame3
 Entering Gaussian System, Link 0=/usr/local/bin/G09/G09d/g09/g09
 Initial command:
 /usr/local/bin/G09/G09d//g09/l1.exe "/work/danielmachado/job-23476/Gau-10626.inp" -scrdir="/work/danielmachado/job-23476/"
 Entering Link 1 = /usr/local/bin/G09/G09d//g09/l1.exe PID=     10628.
  
 Copyright (c) 1988,1990,1992,1993,1995,1998,2003,2009,2013,
            Gaussian, Inc.  All Rights Reserved.
  
 This is part of the Gaussian(R) 09 program.  It is based on
 the Gaussian(R) 03 system (copyright 2003, Gaussian, Inc.),
 the Gaussian(R) 98 system (copyright 1998, Gaussian, Inc.),
 the Gaussian(R) 94 system (copyright 1995, Gaussian, Inc.),
 the Gaussian 92(TM) system (copyright 1992, Gaussian, Inc.),
 the Gaussian 90(TM) system (copyright 1990, Gaussian, Inc.),
 the Gaussian 88(TM) system (copyright 1988, Gaussian, Inc.),
 the Gaussian 86(TM) system (copyright 1986, Carnegie Mellon
 University), and the Gaussian 82(TM) system (copyright 1983,
 Carnegie Mellon University). Gaussian is a federally registered
 trademark of Gaussian, Inc.
  
 This software contains proprietary and confidential information,
 including trade secrets, belonging to Gaussian, Inc.
  
 This software is provided under written license and may be
 used, copied, transmitted, or stored only in accord with that
 written license.
  
 The following legend is applicable only to US Government
 contracts under FAR:
  
                    RESTRICTED RIGHTS LEGEND
  
 Use, reproduction and disclosure by the US Government is
 subject to restrictions as set forth in subparagraphs (a)
 and (c) of the Commercial Computer Software - Restricted
 Rights clause in FAR 52.227-19.
  
 Gaussian, Inc.
 340 Quinnipiac St., Bldg. 40, Wallingford CT 06492
  
  
 ---------------------------------------------------------------
 Warning -- This program may not be used in any manner that
 competes with the business of Gaussian, Inc. or will provide
 assistance to any competitor of Gaussian, Inc.  The licensee
 of this program is prohibited from giving any competitor of
 Gaussian, Inc. access to this program.  By using this program,
 the user acknowledges that Gaussian, Inc. is engaged in the
 business of creating and licensing software in the field of
 computational chemistry and represents and warrants to the
 licensee that it is not a competitor of Gaussian, Inc. and that
 it will not use this program in any manner prohibited above.
 ---------------------------------------------------------------
  

 Cite this work as:
 Gaussian 09, Revision D.01,
 M. J. Frisch, G. W. Trucks, H. B. Schlegel, G. E. Scuseria, 
 M. A. Robb, J. R. Cheeseman, G. Scalmani, V. Barone, B. Mennucci, 
 G. A. Petersson, H. Nakatsuji, M. Caricato, X. Li, H. P. Hratchian, 
 A. F. Izmaylov, J. Bloino, G. Zheng, J. L. Sonnenberg, M. Hada, 
 M. Ehara, K. Toyota, R. Fukuda, J. Hasegawa, M. Ishida, T. Nakajima, 
 Y. Honda, O. Kitao, H. Nakai, T. Vreven, J. A. Montgomery, Jr., 
 J. E. Peralta, F. Ogliaro, M. Bearpark, J. J. Heyd, E. Brothers, 
 K. N. Kudin, V. N. Staroverov, T. Keith, R. Kobayashi, J. Normand, 
 K. Raghavachari, A. Rendell, J. C. Burant, S. S. Iyengar, J. Tomasi, 
 M. Cossi, N. Rega, J. M. Millam, M. Klene, J. E. Knox, J. B. Cross, 
 V. Bakken, C. Adamo, J. Jaramillo, R. Gomperts, R. E. Stratmann, 
 O. Yazyev, A. J. Austin, R. Cammi, C. Pomelli, J. W. Ochterski, 
 R. L. Martin, K. Morokuma, V. G. Zakrzewski, G. A. Voth, 
 P. Salvador, J. J. Dannenberg, S. Dapprich, A. D. Daniels, 
 O. Farkas, J. B. Foresman, J. V. Ortiz, J. Cioslowski, 
 and D. J. Fox, Gaussian, Inc., Wallingford CT, 2013.
 
 ******************************************
 Gaussian 09:  EM64L-G09RevD.01 24-Apr-2013
                13-Jan-2021 
 ******************************************
 %nprocshared=8
 Will use up to    8 processors via shared memory.
 %chk=ONL_VSNS_0_M062X.chk
 %mem=40GB
 -----------------------------------------------------------------
 #p M062X/6-311+g(d) polar=gamma pop=chelpg density=current NoSymm
 -----------------------------------------------------------------
 1/30=1,38=101,83=1,84=49/1,6;
 2/12=2,15=1,17=6,18=5,40=1/2;
 3/5=4,6=6,7=11,11=2,16=1,25=1,30=1,74=-55/1,2,3;
 4/69=2/1;
 5/5=2,38=5,96=-2,98=1/2;
 8/6=4,10=90,11=11/1;
 10/6=20001,13=10,31=1,60=-2,72=3/2;
 6/7=2,8=2,9=2,10=2,12=2,15=8,20=3,22=-1,28=1/1,2;
 1/38=100,84=49/6(1);
 99/9=1/99;
 3/5=4,6=6,7=11,11=2,14=-3,16=1,25=1,30=1,74=-55/1,2,3;
 4/5=5,16=3,69=2/1;
 5/5=2,38=5,96=-2,98=1/2;
 8/6=4,10=90,11=11/1;
 10/6=20001,13=10,31=1,60=-2,72=3/2;
 6/7=2,8=2,9=2,10=2,12=2,15=8,20=3,22=-1,28=1/1,2;
 1/38=100,84=49/6(-6);
 99/9=1/99;
 Leave Link    1 at Wed Jan 13 18:22:19 2021, MaxMem=  5368709120 cpu:         0.6
 (Enter /usr/local/bin/G09/G09d//g09/l101.exe)
 ----------------
 ONL_VSNS_0_M062X
 ----------------
 Symbolic Z-matrix:
 Charge =  0 Multiplicity = 1
 C                     4.98133   0.07155   10.99325 
 H                     5.23719  -0.32115   11.79686 
 C                     3.7217   -0.11565   10.5386 
 H                     3.11544  -0.62234   11.02761 
 C                     3.34862   0.45677   9.33804 
 H                     2.4866    0.33696   9.00914 
 C                     4.26051   1.20058   8.63782 
 H                     4.00856   1.58413   7.82896 
 C                     5.55412   1.39568   9.10858 
 C                     6.57124   2.13965   8.39308 
 H                     7.42429   2.18483   8.76258 
 C                     6.35253   2.76224   7.23673 
 H                     5.48763   2.71315   6.90027 
 C                     7.31363   3.51021   6.44003 
 C                     6.85988   4.16208   5.28566 
 H                     5.96494   4.08678   5.04453 
 C                     7.70674   4.9103    4.50079 
 C                     9.05421   5.00531   4.84514 
 C                     9.51653   4.35053   5.97536 
 H                     10.41551   4.4071    6.20498 
 C                     8.65614   3.61754   6.76302 
 H                     8.98097   3.18906   7.52159 
 C                     7.20934   0.99507   10.904 
 H                     7.24359   0.54579   11.75248 
 H                     7.87411   0.62483   10.31917 
 H                     7.37961   1.93107   11.03089 
 C                     11.21177   5.8215    4.26788 
 H                     11.57252   4.93293   4.30486 
 H                     11.64378   6.31405   3.56684 
 H                     11.3604   6.26246   5.10699 
 N                     5.87483   0.81453   10.30602 
 O                     7.30398   5.57656   3.38619 
 O                     9.82406   5.75503   4.00965 
 H                     6.49145   5.35808   3.18878 
 C                     11.62573   3.48916   8.89704 
 C                     11.79932   4.84024   8.82488 
 H                     11.33383   5.39885   9.40527 
 C                     12.68416   5.39386   7.87153 
 C                     12.89537   6.78912   7.75072 
 H                     12.44306   7.37485   8.31385 
 C                     13.75627   7.27834   6.8166 
 H                     13.88194   8.19686   6.74412 
 C                     14.4509   6.41805   5.96681 
 H                     15.03555   6.76666   5.33217 
 C                     14.27951   5.07603   6.05935 
 H                     14.7544   4.51277   5.49326 
 C                     13.3881   4.52192   7.00497 
 C                     13.18617   3.12998   7.11608 
 H                     13.6492   2.55174   6.55344 
 C                     12.32488   2.62413   8.03524 
 H                     12.19641   1.70477   8.09524 
 O                     9.41348   3.68285   10.23518 
 O                     11.30497   2.65907   11.32709 
 O                     10.13132   1.50941   9.5703 
 S                     10.53712   2.7902    10.10845 
 O                     3.56023   2.18982   5.30029 
 H                     4.02235   2.14656   4.62045 
 H                     3.32543   3.02016   5.39792 
 O                     4.82587   4.92294   2.76192 
 H                     4.70523   4.29312   2.36858 
 H                     4.0966    5.3664    2.84361 
 
 NAtoms=     61 NQM=       61 NQMF=       0 NMMI=      0 NMMIF=      0
                NMic=       0 NMicF=      0.
                    Isotopes and Nuclear Properties:
 (Nuclear quadrupole moments (NQMom) in fm**2, nuclear magnetic moments (NMagM)
  in nuclear magnetons)

  Atom         1           2           3           4           5           6           7           8           9          10
 IAtWgt=          12           1          12           1          12           1          12           1          12          12
 AtmWgt=  12.0000000   1.0078250  12.0000000   1.0078250  12.0000000   1.0078250  12.0000000   1.0078250  12.0000000  12.0000000
 NucSpn=           0           1           0           1           0           1           0           1           0           0
 AtZEff=   0.0000000   0.0000000   0.0000000   0.0000000   0.0000000   0.0000000   0.0000000   0.0000000   0.0000000   0.0000000
 NQMom=    0.0000000   0.0000000   0.0000000   0.0000000   0.0000000   0.0000000   0.0000000   0.0000000   0.0000000   0.0000000
 NMagM=    0.0000000   2.7928460   0.0000000   2.7928460   0.0000000   2.7928460   0.0000000   2.7928460   0.0000000   0.0000000
 AtZNuc=   6.0000000   1.0000000   6.0000000   1.0000000   6.0000000   1.0000000   6.0000000   1.0000000   6.0000000   6.0000000

  Atom        11          12          13          14          15          16          17          18          19          20
 IAtWgt=           1          12           1          12          12           1          12          12          12           1
 AtmWgt=   1.0078250  12.0000000   1.0078250  12.0000000  12.0000000   1.0078250  12.0000000  12.0000000  12.0000000   1.0078250
 NucSpn=           1           0           1           0           0           1           0           0           0           1
 AtZEff=   0.0000000   0.0000000   0.0000000   0.0000000   0.0000000   0.0000000   0.0000000   0.0000000   0.0000000   0.0000000
 NQMom=    0.0000000   0.0000000   0.0000000   0.0000000   0.0000000   0.0000000   0.0000000   0.0000000   0.0000000   0.0000000
 NMagM=    2.7928460   0.0000000   2.7928460   0.0000000   0.0000000   2.7928460   0.0000000   0.0000000   0.0000000   2.7928460
 AtZNuc=   1.0000000   6.0000000   1.0000000   6.0000000   6.0000000   1.0000000   6.0000000   6.0000000   6.0000000   1.0000000

  Atom        21          22          23          24          25          26          27          28          29          30
 IAtWgt=          12           1          12           1           1           1          12           1           1           1
 AtmWgt=  12.0000000   1.0078250  12.0000000   1.0078250   1.0078250   1.0078250  12.0000000   1.0078250   1.0078250   1.0078250
 NucSpn=           0           1           0           1           1           1           0           1           1           1
 AtZEff=   0.0000000   0.0000000   0.0000000   0.0000000   0.0000000   0.0000000   0.0000000   0.0000000   0.0000000   0.0000000
 NQMom=    0.0000000   0.0000000   0.0000000   0.0000000   0.0000000   0.0000000   0.0000000   0.0000000   0.0000000   0.0000000
 NMagM=    0.0000000   2.7928460   0.0000000   2.7928460   2.7928460   2.7928460   0.0000000   2.7928460   2.7928460   2.7928460
 AtZNuc=   6.0000000   1.0000000   6.0000000   1.0000000   1.0000000   1.0000000   6.0000000   1.0000000   1.0000000   1.0000000

  Atom        31          32          33          34          35          36          37          38          39          40
 IAtWgt=          14          16          16           1          12          12           1          12          12           1
 AtmWgt=  14.0030740  15.9949146  15.9949146   1.0078250  12.0000000  12.0000000   1.0078250  12.0000000  12.0000000   1.0078250
 NucSpn=           2           0           0           1           0           0           1           0           0           1
 AtZEff=   0.0000000   0.0000000   0.0000000   0.0000000   0.0000000   0.0000000   0.0000000   0.0000000   0.0000000   0.0000000
 NQMom=    2.0440000   0.0000000   0.0000000   0.0000000   0.0000000   0.0000000   0.0000000   0.0000000   0.0000000   0.0000000
 NMagM=    0.4037610   0.0000000   0.0000000   2.7928460   0.0000000   0.0000000   2.7928460   0.0000000   0.0000000   2.7928460
 AtZNuc=   7.0000000   8.0000000   8.0000000   1.0000000   6.0000000   6.0000000   1.0000000   6.0000000   6.0000000   1.0000000

  Atom        41          42          43          44          45          46          47          48          49          50
 IAtWgt=          12           1          12           1          12           1          12          12           1          12
 AtmWgt=  12.0000000   1.0078250  12.0000000   1.0078250  12.0000000   1.0078250  12.0000000  12.0000000   1.0078250  12.0000000
 NucSpn=           0           1           0           1           0           1           0           0           1           0
 AtZEff=   0.0000000   0.0000000   0.0000000   0.0000000   0.0000000   0.0000000   0.0000000   0.0000000   0.0000000   0.0000000
 NQMom=    0.0000000   0.0000000   0.0000000   0.0000000   0.0000000   0.0000000   0.0000000   0.0000000   0.0000000   0.0000000
 NMagM=    0.0000000   2.7928460   0.0000000   2.7928460   0.0000000   2.7928460   0.0000000   0.0000000   2.7928460   0.0000000
 AtZNuc=   6.0000000   1.0000000   6.0000000   1.0000000   6.0000000   1.0000000   6.0000000   6.0000000   1.0000000   6.0000000

  Atom        51          52          53          54          55          56          57          58          59          60
 IAtWgt=           1          16          16          16          32          16           1           1          16           1
 AtmWgt=   1.0078250  15.9949146  15.9949146  15.9949146  31.9720718  15.9949146   1.0078250   1.0078250  15.9949146   1.0078250
 NucSpn=           1           0           0           0           0           0           1           1           0           1
 AtZEff=   0.0000000   0.0000000   0.0000000   0.0000000   0.0000000   0.0000000   0.0000000   0.0000000   0.0000000   0.0000000
 NQMom=    0.0000000   0.0000000   0.0000000   0.0000000   0.0000000   0.0000000   0.0000000   0.0000000   0.0000000   0.0000000
 NMagM=    2.7928460   0.0000000   0.0000000   0.0000000   0.0000000   0.0000000   2.7928460   2.7928460   0.0000000   2.7928460
 AtZNuc=   1.0000000   8.0000000   8.0000000   8.0000000  16.0000000   8.0000000   1.0000000   1.0000000   8.0000000   1.0000000

  Atom        61
 IAtWgt=           1
 AtmWgt=   1.0078250
 NucSpn=           1
 AtZEff=   0.0000000
 NQMom=    0.0000000
 NMagM=    2.7928460
 AtZNuc=   1.0000000
 Using perturbation frequencies:    0.000000    0.072000
 Leave Link  101 at Wed Jan 13 18:22:19 2021, MaxMem=  5368709120 cpu:         1.2
 (Enter /usr/local/bin/G09/G09d//g09/l106.exe)
 Differentiate once with respect to electric field.
 Nuclear step= 0.001000 Angstroms, electric field step= 0.000333 atomic units, NStep=1.
 Leave Link  106 at Wed Jan 13 18:22:19 2021, MaxMem=  5368709120 cpu:         0.0
 (Enter /usr/local/bin/G09/G09d//g09/l202.exe)
 Symmetry turned off by external request.
 Stoichiometry    C25H27NO7S
 Framework group  C1[X(C25H27NO7S)]
 Deg. of freedom   177
 Full point group                 C1      NOp   1
                          Input orientation:                          
 ---------------------------------------------------------------------
 Center     Atomic      Atomic             Coordinates (Angstroms)
 Number     Number       Type             X           Y           Z
 ---------------------------------------------------------------------
      1          6           0        4.981328    0.071552   10.993252
      2          1           0        5.237190   -0.321152   11.796859
      3          6           0        3.721703   -0.115648   10.538604
      4          1           0        3.115443   -0.622336   11.027606
      5          6           0        3.348624    0.456768    9.338043
      6          1           0        2.486605    0.336960    9.009138
      7          6           0        4.260512    1.200576    8.637825
      8          1           0        4.008560    1.584128    7.828959
      9          6           0        5.554116    1.395680    9.108582
     10          6           0        6.571241    2.139654    8.393078
     11          1           0        7.424292    2.184832    8.762582
     12          6           0        6.352534    2.762240    7.236733
     13          1           0        5.487633    2.713152    6.900267
     14          6           0        7.313628    3.510208    6.440030
     15          6           0        6.859881    4.162080    5.285657
     16          1           0        5.964942    4.086784    5.044526
     17          6           0        7.706735    4.910298    4.500788
     18          6           0        9.054207    5.005312    4.845144
     19          6           0        9.516534    4.350528    5.975355
     20          1           0       10.415511    4.407104    6.204980
     21          6           0        8.656140    3.617536    6.763017
     22          1           0        8.980968    3.189056    7.521586
     23          6           0        7.209337    0.995072   10.903999
     24          1           0        7.243593    0.545792   11.752479
     25          1           0        7.874112    0.624832   10.319170
     26          1           0        7.379610    1.931072   11.030893
     27          6           0       11.211774    5.821504    4.267876
     28          1           0       11.572521    4.932928    4.304859
     29          1           0       11.643778    6.314048    3.566836
     30          1           0       11.360398    6.262464    5.106986
     31          7           0        5.874834    0.814528   10.306020
     32          8           0        7.303978    5.576563    3.386193
     33          8           0        9.824057    5.755027    4.009650
     34          1           0        6.491451    5.358080    3.188784
     35          6           0       11.625734    3.489158    8.897037
     36          6           0       11.799321    4.840243    8.824879
     37          1           0       11.333829    5.398848    9.405271
     38          6           0       12.684164    5.393856    7.871531
     39          6           0       12.895367    6.789120    7.750719
     40          1           0       12.443058    7.374848    8.313851
     41          6           0       13.756273    7.278336    6.816602
     42          1           0       13.881943    8.196864    6.744115
     43          6           0       14.450900    6.418048    5.966807
     44          1           0       15.035548    6.766656    5.332174
     45          6           0       14.279507    5.076032    6.059348
     46          1           0       14.754396    4.512768    5.493257
     47          6           0       13.388097    4.521920    7.004971
     48          6           0       13.186172    3.129984    7.116085
     49          1           0       13.649195    2.551744    6.553445
     50          6           0       12.324882    2.624128    8.035244
     51          1           0       12.196412    1.704768    8.095239
     52          8           0        9.413483    3.682848   10.235176
     53          8           0       11.304968    2.659072   11.327088
     54          8           0       10.131317    1.509414    9.570298
     55         16           0       10.537122    2.790195   10.108447
     56          8           0        3.560232    2.189824    5.300286
     57          1           0        4.022351    2.146560    4.620450
     58          1           0        3.325427    3.020160    5.397922
     59          8           0        4.825874    4.922944    2.761915
     60          1           0        4.705227    4.293120    2.368577
     61          1           0        4.096599    5.366400    2.843607
 ---------------------------------------------------------------------
 Rotational constants (GHZ):      0.1356477      0.0772839      0.0516543
 Leave Link  202 at Wed Jan 13 18:22:20 2021, MaxMem=  5368709120 cpu:         0.0
 (Enter /usr/local/bin/G09/G09d//g09/l301.exe)
 Standard basis: 6-311+G(d) (5D, 7F)
 Ernie: Thresh=  0.10000D-02 Tol=  0.10000D-05 Strict=F.
   837 basis functions,  1373 primitive gaussians,   871 cartesian basis functions
   128 alpha electrons      128 beta electrons
       nuclear repulsion energy      3776.8843146181 Hartrees.
 IExCor= 4336 DFT=T Ex+Corr=M062X ExCW=0 ScaHFX=  0.540000
 ScaDFX=  1.000000  1.000000  1.000000  1.000000 ScalE2=  1.000000  1.000000
 IRadAn=      0 IRanWt=     -1 IRanGd=            0 ICorTp=0 IEmpDi=  4
 NAtoms=   61 NActive=   61 NUniq=   61 SFac= 1.00D+00 NAtFMM=   60 NAOKFM=T Big=T
 Integral buffers will be    131072 words long.
 Raffenetti 2 integral format.
 Two-electron integral symmetry is turned off.
 Leave Link  301 at Wed Jan 13 18:22:20 2021, MaxMem=  5368709120 cpu:         0.6
 (Enter /usr/local/bin/G09/G09d//g09/l302.exe)
 NPDir=0 NMtPBC=     1 NCelOv=     1 NCel=       1 NClECP=     1 NCelD=      1
         NCelK=      1 NCelE2=     1 NClLst=     1 CellRange=     0.0.
 One-electron integrals computed using PRISM.
 NBasis=   837 RedAO= T EigKep=  1.14D-06  NBF=   837
 NBsUse=   827 1.00D-06 EigRej=  8.99D-07 NBFU=   827
 Precomputing XC quadrature grid using
 IXCGrd= 4 IRadAn=           0 IRanWt=          -1 IRanGd=           0 AccXCQ= 0.00D+00.
 Generated NRdTot=       0 NPtTot=           0 NUsed=           0 NTot=          32
 NSgBfM=   853   853   853   853   853 MxSgAt=    61 MxSgA2=    61.
 Leave Link  302 at Wed Jan 13 18:22:22 2021, MaxMem=  5368709120 cpu:        16.1
 (Enter /usr/local/bin/G09/G09d//g09/l303.exe)
 DipDrv:  MaxL=1.
 Leave Link  303 at Wed Jan 13 18:22:22 2021, MaxMem=  5368709120 cpu:         1.3
 (Enter /usr/local/bin/G09/G09d//g09/l401.exe)
 ExpMin= 4.05D-02 ExpMax= 9.34D+04 ExpMxC= 3.17D+03 IAcc=2 IRadAn=         4 AccDes= 0.00D+00
 Harris functional with IExCor= 1009 and IRadAn=       4 diagonalized for initial guess.
 HarFok:  IExCor= 1009 AccDes= 0.00D+00 IRadAn=         4 IDoV= 1 UseB2=F ITyADJ=14
 ICtDFT=  3500011 ScaDFX=  1.000000  1.000000  1.000000  1.000000
 FoFCou: FMM=F IPFlag=           0 FMFlag=      100000 FMFlg1=        2001
         NFxFlg=           0 DoJE=T BraDBF=F KetDBF=T FulRan=T
         wScrn=  0.000000 ICntrl=     500 IOpCl=  0 I1Cent=   200000004 NGrid=           0
         NMat0=    1 NMatS0=      1 NMatT0=    0 NMatD0=    1 NMtDS0=    0 NMtDT0=    0
 Symmetry not used in FoFCou.
 Harris En= -1947.02327971623    
 JPrj=0 DoOrth=F DoCkMO=F.
 Leave Link  401 at Wed Jan 13 18:22:29 2021, MaxMem=  5368709120 cpu:        52.6
 (Enter /usr/local/bin/G09/G09d//g09/l502.exe)
 Closed shell SCF:
 Using DIIS extrapolation, IDIIS=  1040.
 Two-electron integral symmetry not used.
 IVT=     2306789 IEndB=     2306789 NGot=  5368709120 MDV=  5367178484
 LenX=  5367178484 LenY=  5366418972
 Requested convergence on RMS density matrix=1.00D-08 within 128 cycles.
 Requested convergence on MAX density matrix=1.00D-06.
 Requested convergence on             energy=1.00D-06.
 No special actions if energy rises.
 Fock matrices will be formed incrementally for  20 cycles.

 Cycle   1  Pass 1  IDiag  1:
 FoFJK:  IHMeth= 1 ICntrl=       0 DoSepK=F KAlg= 0 I1Cent=   0 FoldK=F
 IRaf= 800000000 NMat=   1 IRICut=       1 DoRegI=T DoRafI=F ISym2E= 0.
 FoFCou: FMM=T IPFlag=           0 FMFlag=      100000 FMFlg1=        2001
         NFxFlg=           0 DoJE=F BraDBF=F KetDBF=F FulRan=T
         wScrn=  0.000000 ICntrl=       0 IOpCl=  0 I1Cent=           0 NGrid=           0
         NMat0=    1 NMatS0=      1 NMatT0=    0 NMatD0=    1 NMtDS0=    0 NMtDT0=    0
 Symmetry not used in FoFCou.
 FMM levels:  10  Number of levels for PrismC:   9
 E= -1946.21589606865    
 DIIS: error= 4.66D-02 at cycle   1 NSaved=   1.
 NSaved= 1 IEnMin= 1 EnMin= -1946.21589606865     IErMin= 1 ErrMin= 4.66D-02
 ErrMax= 4.66D-02  0.00D+00 EMaxC= 1.00D-01 BMatC= 1.86D+00 BMatP= 1.86D+00
 IDIUse=3 WtCom= 5.34D-01 WtEn= 4.66D-01
 Coeff-Com:  0.100D+01
 Coeff-En:   0.100D+01
 Coeff:      0.100D+01
 Gap=     0.175 Goal=   None    Shift=    0.000
 GapD=    0.175 DampG=1.000 DampE=0.500 DampFc=0.5000 IDamp=-1.
 Damping current iteration by 5.00D-01
 RMSDP=9.58D-02 MaxDP=1.43D+01              OVMax= 2.34D-01

 Cycle   2  Pass 1  IDiag  1:
 RMSU=  3.70D-02    CP:  1.30D+00
 E= -1946.83720527669     Delta-E=       -0.621309208040 Rises=F Damp=T
 DIIS: error= 6.54D-03 at cycle   2 NSaved=   2.
 NSaved= 2 IEnMin= 2 EnMin= -1946.83720527669     IErMin= 2 ErrMin= 6.54D-03
 ErrMax= 6.54D-03  0.00D+00 EMaxC= 1.00D-01 BMatC= 1.32D-01 BMatP= 1.86D+00
 IDIUse=3 WtCom= 9.35D-01 WtEn= 6.54D-02
 Coeff-Com: -0.428D-01 0.104D+01
 Coeff-En:   0.000D+00 0.100D+01
 Coeff:     -0.400D-01 0.104D+01
 Gap=     0.205 Goal=   None    Shift=    0.000
 RMSDP=2.94D-02 MaxDP=3.49D+00 DE=-6.21D-01 OVMax= 1.94D-01

 Cycle   3  Pass 1  IDiag  1:
 RMSU=  1.19D-02    CP:  1.08D+00  6.16D-01
 E= -1947.44877975301     Delta-E=       -0.611574476320 Rises=F Damp=F
 DIIS: error= 1.02D-02 at cycle   3 NSaved=   3.
 NSaved= 3 IEnMin= 3 EnMin= -1947.44877975301     IErMin= 2 ErrMin= 6.54D-03
 ErrMax= 1.02D-02  0.00D+00 EMaxC= 1.00D-01 BMatC= 7.18D-02 BMatP= 1.32D-01
 IDIUse=3 WtCom= 8.98D-01 WtEn= 1.02D-01
 Coeff-Com: -0.849D-01 0.456D+00 0.629D+00
 Coeff-En:   0.000D+00 0.000D+00 0.100D+01
 Coeff:     -0.763D-01 0.409D+00 0.667D+00
 Gap=     0.167 Goal=   None    Shift=    0.000
 RMSDP=8.64D-03 MaxDP=8.43D-01 DE=-6.12D-01 OVMax= 7.43D-02

 Cycle   4  Pass 1  IDiag  1:
 RMSU=  4.06D-03    CP:  1.09D+00  8.08D-01  8.37D-01
 E= -1947.49793437574     Delta-E=       -0.049154622725 Rises=F Damp=F
 DIIS: error= 5.01D-03 at cycle   4 NSaved=   4.
 NSaved= 4 IEnMin= 4 EnMin= -1947.49793437574     IErMin= 4 ErrMin= 5.01D-03
 ErrMax= 5.01D-03  0.00D+00 EMaxC= 1.00D-01 BMatC= 1.33D-02 BMatP= 7.18D-02
 IDIUse=3 WtCom= 9.50D-01 WtEn= 5.01D-02
 Coeff-Com: -0.307D-01 0.113D+00 0.348D+00 0.569D+00
 Coeff-En:   0.000D+00 0.000D+00 0.149D+00 0.851D+00
 Coeff:     -0.292D-01 0.107D+00 0.338D+00 0.583D+00
 Gap=     0.168 Goal=   None    Shift=    0.000
 RMSDP=2.59D-03 MaxDP=1.94D-01 DE=-4.92D-02 OVMax= 2.85D-02

 Cycle   5  Pass 1  IDiag  1:
 RMSU=  1.09D-03    CP:  1.08D+00  7.63D-01  8.37D-01  6.80D-01
 E= -1947.50939863212     Delta-E=       -0.011464256384 Rises=F Damp=F
 DIIS: error= 1.31D-03 at cycle   5 NSaved=   5.
 NSaved= 5 IEnMin= 5 EnMin= -1947.50939863212     IErMin= 5 ErrMin= 1.31D-03
 ErrMax= 1.31D-03  0.00D+00 EMaxC= 1.00D-01 BMatC= 7.69D-04 BMatP= 1.33D-02
 IDIUse=3 WtCom= 9.87D-01 WtEn= 1.31D-02
 Coeff-Com: -0.703D-02 0.175D-01 0.110D+00 0.280D+00 0.599D+00
 Coeff-En:   0.000D+00 0.000D+00 0.000D+00 0.000D+00 0.100D+01
 Coeff:     -0.694D-02 0.173D-01 0.109D+00 0.276D+00 0.605D+00
 Gap=     0.163 Goal=   None    Shift=    0.000
 RMSDP=6.76D-04 MaxDP=1.02D-01 DE=-1.15D-02 OVMax= 6.20D-03

 Cycle   6  Pass 1  IDiag  1:
 RMSU=  3.13D-04    CP:  1.08D+00  7.53D-01  8.52D-01  6.75D-01  7.00D-01
 E= -1947.51007396701     Delta-E=       -0.000675334888 Rises=F Damp=F
 DIIS: error= 2.52D-04 at cycle   6 NSaved=   6.
 NSaved= 6 IEnMin= 6 EnMin= -1947.51007396701     IErMin= 6 ErrMin= 2.52D-04
 ErrMax= 2.52D-04  0.00D+00 EMaxC= 1.00D-01 BMatC= 4.43D-05 BMatP= 7.69D-04
 IDIUse=3 WtCom= 9.97D-01 WtEn= 2.52D-03
 Coeff-Com: -0.679D-03-0.402D-03 0.205D-01 0.695D-01 0.257D+00 0.654D+00
 Coeff-En:   0.000D+00 0.000D+00 0.000D+00 0.000D+00 0.000D+00 0.100D+01
 Coeff:     -0.678D-03-0.401D-03 0.204D-01 0.693D-01 0.257D+00 0.655D+00
 Gap=     0.164 Goal=   None    Shift=    0.000
 RMSDP=1.83D-04 MaxDP=2.48D-02 DE=-6.75D-04 OVMax= 2.29D-03

 Cycle   7  Pass 1  IDiag  1:
 RMSU=  1.14D-04    CP:  1.08D+00  7.54D-01  8.52D-01  6.97D-01  7.26D-01
                    CP:  7.30D-01
 E= -1947.51011429861     Delta-E=       -0.000040331605 Rises=F Damp=F
 DIIS: error= 7.35D-05 at cycle   7 NSaved=   7.
 NSaved= 7 IEnMin= 7 EnMin= -1947.51011429861     IErMin= 7 ErrMin= 7.35D-05
 ErrMax= 7.35D-05  0.00D+00 EMaxC= 1.00D-01 BMatC= 4.29D-06 BMatP= 4.43D-05
 IDIUse=1 WtCom= 1.00D+00 WtEn= 0.00D+00
 Coeff-Com:  0.523D-03-0.214D-02-0.321D-02-0.109D-02 0.483D-01 0.270D+00
 Coeff-Com:  0.688D+00
 Coeff:      0.523D-03-0.214D-02-0.321D-02-0.109D-02 0.483D-01 0.270D+00
 Coeff:      0.688D+00
 Gap=     0.164 Goal=   None    Shift=    0.000
 RMSDP=5.61D-05 MaxDP=8.09D-03 DE=-4.03D-05 OVMax= 8.70D-04

 Cycle   8  Pass 1  IDiag  1:
 RMSU=  2.69D-05    CP:  1.08D+00  7.54D-01  8.52D-01  6.93D-01  7.26D-01
                    CP:  8.11D-01  8.35D-01
 E= -1947.51011880186     Delta-E=       -0.000004503244 Rises=F Damp=F
 DIIS: error= 2.08D-05 at cycle   8 NSaved=   8.
 NSaved= 8 IEnMin= 8 EnMin= -1947.51011880186     IErMin= 8 ErrMin= 2.08D-05
 ErrMax= 2.08D-05  0.00D+00 EMaxC= 1.00D-01 BMatC= 4.86D-07 BMatP= 4.29D-06
 IDIUse=1 WtCom= 1.00D+00 WtEn= 0.00D+00
 Coeff-Com:  0.277D-03-0.663D-03-0.426D-02-0.112D-01-0.198D-01-0.904D-02
 Coeff-Com:  0.243D+00 0.802D+00
 Coeff:      0.277D-03-0.663D-03-0.426D-02-0.112D-01-0.198D-01-0.904D-02
 Coeff:      0.243D+00 0.802D+00
 Gap=     0.164 Goal=   None    Shift=    0.000
 RMSDP=2.86D-05 MaxDP=4.83D-03 DE=-4.50D-06 OVMax= 4.07D-04

 Cycle   9  Pass 1  IDiag  1:
 RMSU=  1.68D-05    CP:  1.08D+00  7.53D-01  8.52D-01  6.94D-01  7.32D-01
                    CP:  8.17D-01  9.39D-01  8.11D-01
 E= -1947.51011947468     Delta-E=       -0.000000672821 Rises=F Damp=F
 DIIS: error= 1.16D-05 at cycle   9 NSaved=   9.
 NSaved= 9 IEnMin= 9 EnMin= -1947.51011947468     IErMin= 9 ErrMin= 1.16D-05
 ErrMax= 1.16D-05  0.00D+00 EMaxC= 1.00D-01 BMatC= 8.11D-08 BMatP= 4.86D-07
 IDIUse=1 WtCom= 1.00D+00 WtEn= 0.00D+00
 Coeff-Com:  0.754D-04-0.109D-03-0.167D-02-0.511D-02-0.125D-01-0.264D-01
 Coeff-Com:  0.559D-01 0.371D+00 0.619D+00
 Coeff:      0.754D-04-0.109D-03-0.167D-02-0.511D-02-0.125D-01-0.264D-01
 Coeff:      0.559D-01 0.371D+00 0.619D+00
 Gap=     0.164 Goal=   None    Shift=    0.000
 RMSDP=6.91D-06 MaxDP=9.23D-04 DE=-6.73D-07 OVMax= 1.17D-04

 Cycle  10  Pass 1  IDiag  1:
 RMSU=  4.18D-06    CP:  1.08D+00  7.53D-01  8.52D-01  6.94D-01  7.31D-01
                    CP:  8.16D-01  9.44D-01  8.59D-01  7.94D-01
 E= -1947.51011957756     Delta-E=       -0.000000102887 Rises=F Damp=F
 DIIS: error= 3.88D-06 at cycle  10 NSaved=  10.
 NSaved=10 IEnMin=10 EnMin= -1947.51011957756     IErMin=10 ErrMin= 3.88D-06
 ErrMax= 3.88D-06  0.00D+00 EMaxC= 1.00D-01 BMatC= 9.26D-09 BMatP= 8.11D-08
 IDIUse=1 WtCom= 1.00D+00 WtEn= 0.00D+00
 Coeff-Com: -0.297D-04 0.854D-04 0.208D-03 0.281D-03-0.551D-03-0.843D-02
 Coeff-Com: -0.279D-01-0.263D-01 0.222D+00 0.841D+00
 Coeff:     -0.297D-04 0.854D-04 0.208D-03 0.281D-03-0.551D-03-0.843D-02
 Coeff:     -0.279D-01-0.263D-01 0.222D+00 0.841D+00
 Gap=     0.164 Goal=   None    Shift=    0.000
 RMSDP=2.78D-06 MaxDP=2.99D-04 DE=-1.03D-07 OVMax= 8.16D-05

 Cycle  11  Pass 1  IDiag  1:
 RMSU=  1.61D-06    CP:  1.08D+00  7.53D-01  8.52D-01  6.94D-01  7.31D-01
                    CP:  8.16D-01  9.41D-01  8.79D-01  8.75D-01  8.17D-01
 E= -1947.51011959543     Delta-E=       -0.000000017865 Rises=F Damp=F
 DIIS: error= 1.93D-06 at cycle  11 NSaved=  11.
 NSaved=11 IEnMin=11 EnMin= -1947.51011959543     IErMin=11 ErrMin= 1.93D-06
 ErrMax= 1.93D-06  0.00D+00 EMaxC= 1.00D-01 BMatC= 1.77D-09 BMatP= 9.26D-09
 IDIUse=1 WtCom= 1.00D+00 WtEn= 0.00D+00
 Coeff-Com: -0.211D-04 0.505D-04 0.285D-03 0.687D-03 0.115D-02-0.110D-02
 Coeff-Com: -0.190D-01-0.548D-01 0.286D-01 0.391D+00 0.653D+00
 Coeff:     -0.211D-04 0.505D-04 0.285D-03 0.687D-03 0.115D-02-0.110D-02
 Coeff:     -0.190D-01-0.548D-01 0.286D-01 0.391D+00 0.653D+00
 Gap=     0.164 Goal=   None    Shift=    0.000
 RMSDP=1.07D-06 MaxDP=1.20D-04 DE=-1.79D-08 OVMax= 2.94D-05

 Cycle  12  Pass 1  IDiag  1:
 RMSU=  6.44D-07    CP:  1.08D+00  7.53D-01  8.52D-01  6.94D-01  7.31D-01
                    CP:  8.16D-01  9.41D-01  8.86D-01  8.94D-01  9.32D-01
                    CP:  8.60D-01
 E= -1947.51011959777     Delta-E=       -0.000000002339 Rises=F Damp=F
 DIIS: error= 5.31D-07 at cycle  12 NSaved=  12.
 NSaved=12 IEnMin=12 EnMin= -1947.51011959777     IErMin=12 ErrMin= 5.31D-07
 ErrMax= 5.31D-07  0.00D+00 EMaxC= 1.00D-01 BMatC= 1.77D-10 BMatP= 1.77D-09
 IDIUse=1 WtCom= 1.00D+00 WtEn= 0.00D+00
 Coeff-Com: -0.256D-05 0.505D-05 0.744D-04 0.197D-03 0.458D-03 0.625D-03
 Coeff-Com: -0.271D-02-0.159D-01-0.244D-01 0.224D-01 0.236D+00 0.783D+00
 Coeff:     -0.256D-05 0.505D-05 0.744D-04 0.197D-03 0.458D-03 0.625D-03
 Coeff:     -0.271D-02-0.159D-01-0.244D-01 0.224D-01 0.236D+00 0.783D+00
 Gap=     0.164 Goal=   None    Shift=    0.000
 RMSDP=4.26D-07 MaxDP=4.10D-05 DE=-2.34D-09 OVMax= 1.41D-05

 Cycle  13  Pass 1  IDiag  1:
 RMSU=  2.75D-07    CP:  1.08D+00  7.53D-01  8.52D-01  6.94D-01  7.31D-01
                    CP:  8.16D-01  9.41D-01  8.87D-01  8.95D-01  9.43D-01
                    CP:  9.35D-01  9.13D-01
 E= -1947.51011959804     Delta-E=       -0.000000000274 Rises=F Damp=F
 DIIS: error= 2.85D-07 at cycle  13 NSaved=  13.
 NSaved=13 IEnMin=13 EnMin= -1947.51011959804     IErMin=13 ErrMin= 2.85D-07
 ErrMax= 2.85D-07  0.00D+00 EMaxC= 1.00D-01 BMatC= 3.20D-11 BMatP= 1.77D-10
 IDIUse=1 WtCom= 1.00D+00 WtEn= 0.00D+00
 Coeff-Com:  0.203D-05-0.500D-05-0.448D-05-0.451D-05 0.608D-04 0.481D-03
 Coeff-Com:  0.175D-02 0.976D-03-0.148D-01-0.444D-01 0.651D-02 0.334D+00
 Coeff-Com:  0.715D+00
 Coeff:      0.203D-05-0.500D-05-0.448D-05-0.451D-05 0.608D-04 0.481D-03
 Coeff:      0.175D-02 0.976D-03-0.148D-01-0.444D-01 0.651D-02 0.334D+00
 Coeff:      0.715D+00
 Gap=     0.164 Goal=   None    Shift=    0.000
 RMSDP=2.06D-07 MaxDP=3.39D-05 DE=-2.74D-10 OVMax= 5.16D-06

 Cycle  14  Pass 1  IDiag  1:
 RMSU=  9.03D-08    CP:  1.08D+00  7.53D-01  8.52D-01  6.94D-01  7.31D-01
                    CP:  8.16D-01  9.40D-01  8.88D-01  8.93D-01  9.38D-01
                    CP:  9.65D-01  1.08D+00  8.72D-01
 E= -1947.51011959784     Delta-E=        0.000000000202 Rises=F Damp=F
 DIIS: error= 7.54D-08 at cycle  14 NSaved=  14.
 NSaved=14 IEnMin=13 EnMin= -1947.51011959804     IErMin=14 ErrMin= 7.54D-08
 ErrMax= 7.54D-08  0.00D+00 EMaxC= 1.00D-01 BMatC= 4.25D-12 BMatP= 3.20D-11
 IDIUse=1 WtCom= 1.00D+00 WtEn= 0.00D+00
 Coeff-Com:  0.114D-05-0.268D-05-0.130D-04-0.320D-04-0.553D-04 0.519D-04
 Coeff-Com:  0.107D-02 0.281D-02-0.206D-02-0.207D-01-0.375D-01 0.479D-03
 Coeff-Com:  0.273D+00 0.783D+00
 Coeff:      0.114D-05-0.268D-05-0.130D-04-0.320D-04-0.553D-04 0.519D-04
 Coeff:      0.107D-02 0.281D-02-0.206D-02-0.207D-01-0.375D-01 0.479D-03
 Coeff:      0.273D+00 0.783D+00
 Gap=     0.164 Goal=   None    Shift=    0.000
 RMSDP=6.44D-08 MaxDP=8.72D-06 DE= 2.02D-10 OVMax= 2.16D-06

 Cycle  15  Pass 1  IDiag  1:
 RMSU=  3.40D-08    CP:  1.08D+00  7.53D-01  8.52D-01  6.94D-01  7.31D-01
                    CP:  8.16D-01  9.40D-01  8.88D-01  8.92D-01  9.41D-01
                    CP:  9.70D-01  1.10D+00  1.01D+00  9.13D-01
 E= -1947.51011959767     Delta-E=        0.000000000167 Rises=F Damp=F
 DIIS: error= 4.99D-08 at cycle  15 NSaved=  15.
 NSaved=15 IEnMin=13 EnMin= -1947.51011959804     IErMin=15 ErrMin= 4.99D-08
 ErrMax= 4.99D-08  0.00D+00 EMaxC= 1.00D-01 BMatC= 8.44D-13 BMatP= 4.25D-12
 IDIUse=1 WtCom= 1.00D+00 WtEn= 0.00D+00
 Coeff-Com:  0.229D-06-0.534D-06-0.543D-05-0.143D-04-0.345D-04-0.501D-04
 Coeff-Com:  0.262D-03 0.124D-02 0.130D-02-0.281D-02-0.182D-01-0.473D-01
 Coeff-Com:  0.263D-01 0.367D+00 0.673D+00
 Coeff:      0.229D-06-0.534D-06-0.543D-05-0.143D-04-0.345D-04-0.501D-04
 Coeff:      0.262D-03 0.124D-02 0.130D-02-0.281D-02-0.182D-01-0.473D-01
 Coeff:      0.263D-01 0.367D+00 0.673D+00
 Gap=     0.164 Goal=   None    Shift=    0.000
 RMSDP=2.98D-08 MaxDP=4.65D-06 DE= 1.67D-10 OVMax= 7.28D-07

 Cycle  16  Pass 1  IDiag  1:
 RMSU=  2.36D-08    CP:  1.08D+00  7.53D-01  8.52D-01  6.94D-01  7.31D-01
                    CP:  8.16D-01  9.40D-01  8.88D-01  8.92D-01  9.39D-01
                    CP:  9.71D-01  1.09D+00  9.88D-01  9.85D-01  9.58D-01
 E= -1947.51011959806     Delta-E=       -0.000000000386 Rises=F Damp=F
 DIIS: error= 1.27D-08 at cycle  16 NSaved=  16.
 NSaved=16 IEnMin=16 EnMin= -1947.51011959806     IErMin=16 ErrMin= 1.27D-08
 ErrMax= 1.27D-08  0.00D+00 EMaxC= 1.00D-01 BMatC= 1.05D-13 BMatP= 8.44D-13
 IDIUse=1 WtCom= 1.00D+00 WtEn= 0.00D+00
 Coeff-Com: -0.104D-06 0.232D-06 0.473D-07-0.196D-07-0.298D-05-0.263D-04
 Coeff-Com: -0.700D-04-0.257D-04 0.671D-03 0.214D-02-0.217D-03-0.172D-01
 Coeff-Com: -0.363D-01 0.260D-02 0.271D+00 0.777D+00
 Coeff:     -0.104D-06 0.232D-06 0.473D-07-0.196D-07-0.298D-05-0.263D-04
 Coeff:     -0.700D-04-0.257D-04 0.671D-03 0.214D-02-0.217D-03-0.172D-01
 Coeff:     -0.363D-01 0.260D-02 0.271D+00 0.777D+00
 Gap=     0.164 Goal=   None    Shift=    0.000
 RMSDP=2.82D-08 MaxDP=2.64D-06 DE=-3.86D-10 OVMax= 2.65D-07

 Cycle  17  Pass 1  IDiag  1:
 RMSU=  1.90D-08    CP:  1.08D+00  7.53D-01  8.52D-01  6.94D-01  7.31D-01
                    CP:  8.16D-01  9.40D-01  8.88D-01  8.92D-01  9.39D-01
                    CP:  9.69D-01  1.10D+00  9.83D-01  1.02D+00  1.29D+00
                    CP:  1.60D+00
 E= -1947.51011959809     Delta-E=       -0.000000000034 Rises=F Damp=F
 DIIS: error= 4.11D-09 at cycle  17 NSaved=  17.
 NSaved=17 IEnMin=17 EnMin= -1947.51011959809     IErMin=17 ErrMin= 4.11D-09
 ErrMax= 4.11D-09  0.00D+00 EMaxC= 1.00D-01 BMatC= 1.33D-14 BMatP= 1.05D-13
 IDIUse=1 WtCom= 1.00D+00 WtEn= 0.00D+00
 Coeff-Com: -0.637D-07 0.144D-06 0.474D-06 0.119D-05 0.155D-05-0.835D-05
 Coeff-Com: -0.540D-04-0.123D-03 0.177D-03 0.122D-02 0.168D-02-0.329D-02
 Coeff-Com: -0.184D-01-0.330D-01 0.595D-01 0.348D+00 0.645D+00
 Coeff:     -0.637D-07 0.144D-06 0.474D-06 0.119D-05 0.155D-05-0.835D-05
 Coeff:     -0.540D-04-0.123D-03 0.177D-03 0.122D-02 0.168D-02-0.329D-02
 Coeff:     -0.184D-01-0.330D-01 0.595D-01 0.348D+00 0.645D+00
 Gap=     0.164 Goal=   None    Shift=    0.000
 RMSDP=2.66D-08 MaxDP=1.96D-06 DE=-3.37D-11 OVMax= 6.61D-08

 Cycle  18  Pass 1  IDiag  1:
 RMSU=  9.17D-09    CP:  1.08D+00  7.53D-01  8.52D-01  6.94D-01  7.31D-01
                    CP:  8.16D-01  9.40D-01  8.88D-01  8.93D-01  9.39D-01
                    CP:  9.68D-01  1.10D+00  9.70D-01  1.01D+00  1.54D+00
                    CP:  2.28D+00  1.72D+00
 E= -1947.51011959803     Delta-E=        0.000000000060 Rises=F Damp=F
 DIIS: error= 1.60D-09 at cycle  18 NSaved=  18.
 NSaved=18 IEnMin=17 EnMin= -1947.51011959809     IErMin=18 ErrMin= 1.60D-09
 ErrMax= 1.60D-09  0.00D+00 EMaxC= 1.00D-01 BMatC= 2.37D-15 BMatP= 1.33D-14
 IDIUse=1 WtCom= 1.00D+00 WtEn= 0.00D+00
 Large coefficients: NSaved= 18 BigCof=    0.00 CofMax=   10.00 Det=-5.79D-15
 Inversion failed.  Reducing to 17 matrices.
 Coeff-Com: -0.111D-08 0.628D-07 0.206D-06 0.530D-06-0.678D-07-0.675D-05
 Coeff-Com: -0.324D-04-0.238D-04 0.143D-03 0.654D-03 0.936D-03-0.247D-02
 Coeff-Com: -0.149D-01-0.110D-01 0.477D-01 0.296D+00 0.683D+00
 Coeff:     -0.111D-08 0.628D-07 0.206D-06 0.530D-06-0.678D-07-0.675D-05
 Coeff:     -0.324D-04-0.238D-04 0.143D-03 0.654D-03 0.936D-03-0.247D-02
 Coeff:     -0.149D-01-0.110D-01 0.477D-01 0.296D+00 0.683D+00
 Gap=     0.164 Goal=   None    Shift=    0.000
 RMSDP=3.25D-08 MaxDP=2.85D-06 DE= 6.00D-11 OVMax= 2.05D-08

 Cycle  19  Pass 1  IDiag  1:
 RMSU=  1.51D-08    CP:  1.08D+00  7.53D-01  8.52D-01  6.94D-01  7.31D-01
                    CP:  8.16D-01  9.40D-01  8.88D-01  8.93D-01  9.38D-01
                    CP:  9.66D-01  1.10D+00  9.56D-01  1.02D+00  1.87D+00
                    CP:  2.87D+00  2.44D+00  2.09D+00
 E= -1947.51011959787     Delta-E=        0.000000000159 Rises=F Damp=F
 DIIS: error= 2.09D-09 at cycle  19 NSaved=  18.
 NSaved=18 IEnMin=16 EnMin= -1947.51011959809     IErMin=17 ErrMin= 1.60D-09
 ErrMax= 2.09D-09  0.00D+00 EMaxC= 1.00D-01 BMatC= 1.60D-15 BMatP= 2.37D-15
 IDIUse=1 WtCom= 1.00D+00 WtEn= 0.00D+00
 Large coefficients: NSaved= 18 BigCof=    0.00 CofMax=   10.00 Det=-1.81D-15
 Inversion failed.  Reducing to 17 matrices.
 Large coefficients: NSaved= 17 BigCof=    0.00 CofMax=   10.00 Det=-1.82D-15
 Inversion failed.  Reducing to 16 matrices.
 Large coefficients: NSaved= 16 BigCof=    0.00 CofMax=   10.00 Det=-1.89D-15
 Inversion failed.  Reducing to 15 matrices.
 Coeff-Com: -0.444D-07-0.102D-05-0.416D-05-0.155D-04-0.330D-06 0.119D-03
 Coeff-Com:  0.417D-03 0.354D-03-0.221D-02-0.107D-01-0.558D-02 0.415D-01
 Coeff-Com:  0.229D+00 0.517D+00 0.230D+00
 Coeff:     -0.444D-07-0.102D-05-0.416D-05-0.155D-04-0.330D-06 0.119D-03
 Coeff:      0.417D-03 0.354D-03-0.221D-02-0.107D-01-0.558D-02 0.415D-01
 Coeff:      0.229D+00 0.517D+00 0.230D+00
 Gap=     0.164 Goal=   None    Shift=    0.000
 RMSDP=1.16D-08 MaxDP=9.32D-07 DE= 1.59D-10 OVMax= 1.84D-09

 Cycle  20  Pass 1  IDiag  1:
 RMSU=  3.70D-09    CP:  1.08D+00  7.53D-01  8.52D-01  6.94D-01  7.31D-01
                    CP:  8.16D-01  9.40D-01  8.88D-01  8.93D-01  9.38D-01
                    CP:  9.66D-01  1.10D+00  9.52D-01  1.02D+00  1.96D+00
                    CP:  2.95D+00  2.55D+00  2.45D+00  1.50D+00
 E= -1947.51011959778     Delta-E=        0.000000000097 Rises=F Damp=F
 DIIS: error= 4.53D-09 at cycle  20 NSaved=  16.
 NSaved=16 IEnMin=13 EnMin= -1947.51011959809     IErMin=14 ErrMin= 1.60D-09
 ErrMax= 4.53D-09  0.00D+00 EMaxC= 1.00D-01 BMatC= 2.44D-15 BMatP= 1.60D-15
 IDIUse=1 WtCom= 1.00D+00 WtEn= 0.00D+00
 Large coefficients: NSaved= 16 BigCof=    0.00 CofMax=   10.00 Det=-4.44D-16
 Inversion failed.  Reducing to 15 matrices.
 Coeff-Com: -0.818D-06-0.377D-05-0.152D-04-0.112D-05 0.115D-03 0.411D-03
 Coeff-Com:  0.371D-03-0.213D-02-0.107D-01-0.637D-02 0.386D-01 0.226D+00
 Coeff-Com:  0.539D+00 0.458D+00-0.244D+00
 Coeff:     -0.818D-06-0.377D-05-0.152D-04-0.112D-05 0.115D-03 0.411D-03
 Coeff:      0.371D-03-0.213D-02-0.107D-01-0.637D-02 0.386D-01 0.226D+00
 Coeff:      0.539D+00 0.458D+00-0.244D+00
 Gap=     0.164 Goal=   None    Shift=    0.000
 RMSDP=7.74D-09 MaxDP=8.58D-07 DE= 9.73D-11 OVMax= 1.12D-09

 SCF Done:  E(RM062X) =  -1947.51011960     A.U. after   20 cycles
            NFock= 20  Conv=0.77D-08     -V/T= 1.9986
 KE= 1.950156200414D+03 PE=-1.212468398994D+04 EE= 4.450133355307D+03
 Leave Link  502 at Wed Jan 13 18:44:09 2021, MaxMem=  5368709120 cpu:     10402.8
 (Enter /usr/local/bin/G09/G09d//g09/l801.exe)
 DoSCS=F DFT=T ScalE2(SS,OS)=  1.000000  1.000000
 Range of M.O.s used for correlation:     1   827
 NBasis=   837 NAE=   128 NBE=   128 NFC=     0 NFV=     0
 NROrb=    827 NOA=   128 NOB=   128 NVA=   699 NVB=   699

 **** Warning!!: The largest alpha MO coefficient is  0.14871968D+03

 Leave Link  801 at Wed Jan 13 18:44:10 2021, MaxMem=  5368709120 cpu:         0.3
 (Enter /usr/local/bin/G09/G09d//g09/l1002.exe)
 Minotr:  Closed shell wavefunction.
          Direct CPHF calculation.
          Differentiating once with respect to electric field.
                with respect to dipole field.
          Electric field/nuclear overlap derivatives assumed to be zero.
          Requested convergence is 1.0D-08 RMS, and 1.0D-07 maximum.
          NewPWx=F KeepS1=T KeepF1=T KeepIn=T MapXYZ=F SortEE=F KeepMc=T.
          MDV=    5368707801 using IRadAn=       1.
 Generate precomputed XC quadrature information.
          Solving linear equations separately, MaxMat=      72.
          Doing perturbations at frequencies    0.000000    0.072000    0.144000
          There are     9 degrees of freedom in the 1st order CPHF.  IDoFFX=0 NUNeed=     9.
 LinEq1:  Iter=  0 NonCon=     9 RMS=1.71D-01 Max=6.43D+01 NDo=     9
 AX will form     9 AO Fock derivatives at one time.
 FoFJK:  IHMeth= 1 ICntrl=       0 DoSepK=F KAlg= 0 I1Cent=   0 FoldK=F
 IRaf= 800000000 NMat=  18 IRICut=       1 DoRegI=T DoRafI=F ISym2E= 0.
 FoFCou: FMM=T IPFlag=           0 FMFlag=      100000 FMFlg1=        2001
         NFxFlg=           0 DoJE=F BraDBF=F KetDBF=F FulRan=T
         wScrn=  0.000000 ICntrl=       0 IOpCl=  0 I1Cent=           0 NGrid=           0
         NMat0=   18 NMatS0=      9 NMatT0=    0 NMatD0=   18 NMtDS0=    0 NMtDT0=    0
 Symmetry not used in FoFCou.
 FMM levels:  10  Number of levels for PrismC:   9
 LinEq1:  Iter=  1 NonCon=     9 RMS=1.19D-01 Max=2.14D+01 NDo=     9
 LinEq1:  Iter=  2 NonCon=     9 RMS=1.04D-01 Max=1.19D+01 NDo=     9
 LinEq1:  Iter=  3 NonCon=     9 RMS=7.32D-02 Max=1.35D+01 NDo=     9
 LinEq1:  Iter=  4 NonCon=     9 RMS=8.33D-02 Max=2.01D+01 NDo=     9
 LinEq1:  Iter=  5 NonCon=     9 RMS=8.50D-02 Max=2.13D+01 NDo=     9
 LinEq1:  Iter=  6 NonCon=     9 RMS=7.75D-02 Max=1.36D+01 NDo=     9
 LinEq1:  Iter=  7 NonCon=     9 RMS=5.13D-02 Max=9.01D+00 NDo=     9
 LinEq1:  Iter=  8 NonCon=     9 RMS=4.54D-02 Max=7.08D+00 NDo=     9
 LinEq1:  Iter=  9 NonCon=     9 RMS=3.46D-02 Max=8.93D+00 NDo=     9
 LinEq1:  Iter= 10 NonCon=     9 RMS=3.93D-02 Max=1.01D+01 NDo=     9
 LinEq1:  Iter= 11 NonCon=     9 RMS=3.58D-02 Max=5.76D+00 NDo=     9
 LinEq1:  Iter= 12 NonCon=     9 RMS=2.59D-02 Max=4.29D+00 NDo=     9
 LinEq1:  Iter= 13 NonCon=     9 RMS=2.04D-02 Max=3.17D+00 NDo=     9
 LinEq1:  Iter= 14 NonCon=     9 RMS=1.41D-02 Max=2.21D+00 NDo=     9
 LinEq1:  Iter= 15 NonCon=     9 RMS=8.94D-03 Max=1.24D+00 NDo=     9
 LinEq1:  Iter= 16 NonCon=     9 RMS=7.80D-03 Max=9.45D-01 NDo=     9
 LinEq1:  Iter= 17 NonCon=     9 RMS=4.58D-03 Max=7.51D-01 NDo=     9
 LinEq1:  Iter= 18 NonCon=     9 RMS=3.11D-03 Max=4.88D-01 NDo=     9
 LinEq1:  Iter= 19 NonCon=     9 RMS=2.22D-03 Max=3.79D-01 NDo=     9
 LinEq1:  Iter= 20 NonCon=     9 RMS=1.45D-03 Max=1.97D-01 NDo=     9
 LinEq1:  Iter= 21 NonCon=     9 RMS=1.04D-03 Max=1.15D-01 NDo=     9
 LinEq1:  Iter= 22 NonCon=     9 RMS=6.65D-04 Max=7.36D-02 NDo=     9
 LinEq1:  Iter= 23 NonCon=     9 RMS=4.04D-04 Max=3.84D-02 NDo=     9
 LinEq1:  Iter= 24 NonCon=     9 RMS=2.47D-04 Max=2.51D-02 NDo=     9
 LinEq1:  Iter= 25 NonCon=     9 RMS=1.73D-04 Max=1.79D-02 NDo=     9
 LinEq1:  Iter= 26 NonCon=     7 RMS=9.81D-05 Max=1.69D-02 NDo=     9
 LinEq1:  Iter= 27 NonCon=     6 RMS=6.21D-05 Max=1.01D-02 NDo=     7
 LinEq1:  Iter= 28 NonCon=     6 RMS=3.79D-05 Max=5.54D-03 NDo=     6
 LinEq1:  Iter= 29 NonCon=     4 RMS=2.33D-05 Max=3.22D-03 NDo=     6
 LinEq1:  Iter= 30 NonCon=     3 RMS=1.47D-05 Max=2.49D-03 NDo=     4
 LinEq1:  Iter= 31 NonCon=     3 RMS=9.11D-06 Max=1.79D-03 NDo=     3
 LinEq1:  Iter= 32 NonCon=     3 RMS=6.56D-06 Max=1.20D-03 NDo=     3
 LinEq1:  Iter= 33 NonCon=     3 RMS=4.01D-06 Max=5.24D-04 NDo=     3
 LinEq1:  Iter= 34 NonCon=     3 RMS=2.54D-06 Max=2.62D-04 NDo=     3
 LinEq1:  Iter= 35 NonCon=     3 RMS=1.60D-06 Max=1.41D-04 NDo=     3
 LinEq1:  Iter= 36 NonCon=     3 RMS=1.01D-06 Max=9.94D-05 NDo=     3
 LinEq1:  Iter= 37 NonCon=     3 RMS=5.98D-07 Max=8.37D-05 NDo=     3
 LinEq1:  Iter= 38 NonCon=     3 RMS=3.65D-07 Max=4.01D-05 NDo=     3
 LinEq1:  Iter= 39 NonCon=     3 RMS=2.08D-07 Max=1.94D-05 NDo=     3
 LinEq1:  Iter= 40 NonCon=     3 RMS=1.20D-07 Max=9.85D-06 NDo=     3
 LinEq1:  Iter= 41 NonCon=     3 RMS=6.53D-08 Max=6.27D-06 NDo=     3
 LinEq1:  Iter= 42 NonCon=     3 RMS=3.51D-08 Max=4.18D-06 NDo=     3
 LinEq1:  Iter= 43 NonCon=     3 RMS=1.84D-08 Max=2.43D-06 NDo=     3
 LinEq1:  Iter= 44 NonCon=     3 RMS=1.13D-08 Max=1.22D-06 NDo=     3
 LinEq1:  Iter= 45 NonCon=     3 RMS=8.85D-09 Max=4.39D-07 NDo=     3
 LinEq1:  Iter= 46 NonCon=     3 RMS=6.50D-09 Max=3.41D-07 NDo=     3
 LinEq1:  Iter= 47 NonCon=     3 RMS=6.00D-09 Max=3.67D-07 NDo=     3
 LinEq1:  Iter= 48 NonCon=     3 RMS=4.30D-09 Max=4.20D-07 NDo=     3
 LinEq1:  Iter= 49 NonCon=     2 RMS=2.71D-09 Max=1.37D-07 NDo=     3
 LinEq1:  Iter= 50 NonCon=     1 RMS=1.55D-09 Max=1.12D-07 NDo=     2
 LinEq1:  Iter= 51 NonCon=     1 RMS=8.22D-10 Max=1.04D-07 NDo=     1
 LinEq1:  Iter= 52 NonCon=     0 RMS=3.73D-10 Max=5.89D-08 NDo=     1
 Linear equations converged to 1.000D-08 1.000D-07 after    52 iterations.
 FullF1:  Do perturbations    1 to     9.
 SCF Polarizability for W=    0.000000:
                1             2             3 
      1  0.389365D+03
      2  0.114528D+03  0.336783D+03
      3 -0.915097D+02 -0.129040D+03  0.369635D+03
 Isotropic polarizability for W=    0.000000      365.26 Bohr**3.
 SCF Polarizability for W=    0.072000:
                1             2             3 
      1  0.442910D+03
      2  0.156986D+03  0.384131D+03
      3 -0.136906D+03 -0.174832D+03  0.427393D+03
 Isotropic polarizability for W=    0.072000      418.14 Bohr**3.
 SCF Polarizability for W=    0.144000:
                1             2             3 
      1  0.438827D+03
      2  0.258568D+03  0.664432D+03
      3 -0.314322D+03 -0.529284D+03  0.946618D+03
 Isotropic polarizability for W=    0.144000      683.29 Bohr**3.
 SCF Static Hyperpolarizability:
 K=  1 block:
                1 
      1 -0.233209D+04
 K=  2 block:
                1             2 
      1 -0.214451D+04
      2 -0.195387D+04 -0.180304D+04
 K=  3 block:
                1             2             3 
      1  0.235233D+04
      2  0.219166D+04  0.195987D+04
      3 -0.254890D+04 -0.215300D+04  0.230227D+04
 SCF Beta(-W,W;0) for W=    0.072000:
 K=  1 block:
                1             2             3 
      1 -0.592817D+04
      2 -0.545069D+04 -0.506708D+04
      3  0.604495D+04  0.575172D+04 -0.667169D+04
 K=  2 block:
                1             2             3 
      1 -0.560184D+04
      2 -0.508972D+04 -0.470770D+04
      3  0.567776D+04  0.521171D+04 -0.580600D+04
 K=  3 block:
                1             2             3 
      1  0.625593D+04
      2  0.571912D+04  0.515665D+04
      3 -0.652907D+04 -0.575104D+04  0.634320D+04
 SCF Beta(W,W;-2W) for W=    0.072000:
 K=  1 block:
                1             2             3 
      1  0.675796D+04
      2  0.736819D+04  0.480750D+04
      3 -0.771608D+04 -0.396749D+04  0.225402D+04
 K=  2 block:
                1             2             3 
      1  0.406875D+04
      2  0.689223D+04  0.535288D+04
      3 -0.787965D+04 -0.516911D+04  0.429503D+04
 K=  3 block:
                1             2             3 
      1 -0.354719D+04
      2 -0.784280D+04 -0.667538D+04
      3  0.914242D+04  0.666114D+04 -0.596890D+04
 SCF Beta(-W,W;0) for W=    0.144000:
 K=  1 block:
                1             2             3 
      1 -0.522441D+06
      2 -0.718967D+06 -0.103803D+07
      3  0.947119D+06  0.138636D+07 -0.185860D+07
 K=  2 block:
                1             2             3 
      1 -0.433159D+06
      2 -0.581521D+06 -0.819676D+06
      3  0.756335D+06  0.108141D+07 -0.143234D+07
 K=  3 block:
                1             2             3 
      1  0.425761D+06
      2  0.560215D+06  0.776078D+06
      3 -0.722023D+06 -0.101524D+07  0.133332D+07
 End of Minotr F.D. properties on file   721 Mask=      31 NFrqRd=     2 NDeriv=     1 ND12= 1 LenFil=      94:
 Frequencies=    0.000000    0.072000
 Property number 1 -- Alpha(-w,w) frequency  1    0.000000:
                 1             2             3 
      1   0.389365D+03  0.114528D+03 -0.915097D+02
      2   0.114528D+03  0.336783D+03 -0.129040D+03
      3  -0.915097D+02 -0.129040D+03  0.369635D+03
 Property number 1 -- Alpha(-w,w) frequency  2    0.072000:
                 1             2             3 
      1   0.442910D+03  0.156986D+03 -0.136906D+03
      2   0.156986D+03  0.384131D+03 -0.174832D+03
      3  -0.136906D+03 -0.174832D+03  0.427393D+03
 Property number 5 -- Beta(-w,w,0) frequency  1    0.000000:
                 1 
      1  -0.233209D+04
      2  -0.214451D+04
      3  -0.195387D+04
      4   0.235233D+04
      5   0.219166D+04
      6  -0.254890D+04
      7  -0.214451D+04
      8  -0.195387D+04
      9  -0.180304D+04
     10   0.219166D+04
     11   0.195987D+04
     12  -0.215300D+04
     13   0.235233D+04
     14   0.219166D+04
     15   0.195987D+04
     16  -0.254890D+04
     17  -0.215300D+04
     18   0.230227D+04
 Property number 5 -- Beta(-w,w,0) frequency  2    0.072000:
                 1 
      1  -0.592817D+04
      2  -0.545069D+04
      3  -0.506708D+04
      4   0.604495D+04
      5   0.575172D+04
      6  -0.667169D+04
      7  -0.560184D+04
      8  -0.508972D+04
      9  -0.470770D+04
     10   0.567776D+04
     11   0.521171D+04
     12  -0.580600D+04
     13   0.625593D+04
     14   0.571912D+04
     15   0.515665D+04
     16  -0.652907D+04
     17  -0.575104D+04
     18   0.634320D+04
 Property number 6 -- Beta(w,w,-2w) frequency  1    0.000000:
                 1 
      1  -0.233209D+04
      2  -0.214451D+04
      3  -0.195387D+04
      4   0.235233D+04
      5   0.219166D+04
      6  -0.254890D+04
      7  -0.214451D+04
      8  -0.195387D+04
      9  -0.180304D+04
     10   0.219166D+04
     11   0.195987D+04
     12  -0.215300D+04
     13   0.235233D+04
     14   0.219166D+04
     15   0.195987D+04
     16  -0.254890D+04
     17  -0.215300D+04
     18   0.230227D+04
 Property number 6 -- Beta(w,w,-2w) frequency  2    0.072000:
                 1 
      1   0.675796D+04
      2   0.736819D+04
      3   0.480750D+04
      4  -0.771608D+04
      5  -0.396749D+04
      6   0.225402D+04
      7   0.406875D+04
      8   0.689223D+04
      9   0.535288D+04
     10  -0.787965D+04
     11  -0.516911D+04
     12   0.429503D+04
     13  -0.354719D+04
     14  -0.784280D+04
     15  -0.667538D+04
     16   0.914242D+04
     17   0.666114D+04
     18  -0.596890D+04
 End of Minotr F.D. properties file   722 does not exist.
 End of Minotr F.D. properties file   788 does not exist.
 Leave Link 1002 at Wed Jan 13 23:20:12 2021, MaxMem=  5368709120 cpu:    132542.2
 (Enter /usr/local/bin/G09/G09d//g09/l601.exe)
 Copying SCF densities to generalized density rwf, IOpCl= 0 IROHF=0.

 **********************************************************************

            Population analysis using the SCF density.

 **********************************************************************

 Alpha  occ. eigenvalues --  -90.02524 -19.66123 -19.64952 -19.64655 -19.62683
 Alpha  occ. eigenvalues --  -19.52411 -19.52365 -19.51450 -14.88980 -10.66421
 Alpha  occ. eigenvalues --  -10.64063 -10.60509 -10.60243 -10.60161 -10.59009
 Alpha  occ. eigenvalues --  -10.58910 -10.56933 -10.56156 -10.55356 -10.55230
 Alpha  occ. eigenvalues --  -10.53564 -10.53444 -10.53386 -10.53306 -10.52613
 Alpha  occ. eigenvalues --  -10.52342 -10.52235 -10.51386 -10.51376 -10.51155
 Alpha  occ. eigenvalues --  -10.51053 -10.50785 -10.50782 -10.50529  -8.36534
 Alpha  occ. eigenvalues --   -6.28787  -6.28754  -6.28706  -1.29012  -1.24496
 Alpha  occ. eigenvalues --   -1.20467  -1.19412  -1.18163  -1.17836  -1.04207
 Alpha  occ. eigenvalues --   -1.03525  -1.00594  -0.99018  -0.97695  -0.97121
 Alpha  occ. eigenvalues --   -0.92449  -0.92018  -0.89116  -0.87567  -0.86856
 Alpha  occ. eigenvalues --   -0.86508  -0.83840  -0.83035  -0.82273  -0.81706
 Alpha  occ. eigenvalues --   -0.78726  -0.76974  -0.74820  -0.73863  -0.72753
 Alpha  occ. eigenvalues --   -0.72179  -0.70678  -0.69829  -0.69796  -0.68761
 Alpha  occ. eigenvalues --   -0.66377  -0.64559  -0.64042  -0.63765  -0.61937
 Alpha  occ. eigenvalues --   -0.61486  -0.60857  -0.60354  -0.59811  -0.58936
 Alpha  occ. eigenvalues --   -0.57580  -0.56356  -0.55759  -0.55337  -0.54478
 Alpha  occ. eigenvalues --   -0.54201  -0.53587  -0.53527  -0.53142  -0.52759
 Alpha  occ. eigenvalues --   -0.51841  -0.51225  -0.51025  -0.50455  -0.50159
 Alpha  occ. eigenvalues --   -0.49668  -0.49145  -0.48844  -0.47944  -0.47788
 Alpha  occ. eigenvalues --   -0.47449  -0.46809  -0.46793  -0.45736  -0.45163
 Alpha  occ. eigenvalues --   -0.44461  -0.44319  -0.44090  -0.42400  -0.41827
 Alpha  occ. eigenvalues --   -0.41401  -0.40275  -0.40206  -0.39998  -0.38813
 Alpha  occ. eigenvalues --   -0.38654  -0.35518  -0.34992  -0.34206  -0.33446
 Alpha  occ. eigenvalues --   -0.31387  -0.30938  -0.30159  -0.29796  -0.27427
 Alpha  occ. eigenvalues --   -0.25827  -0.25683  -0.25088
 Alpha virt. eigenvalues --   -0.08704  -0.06095  -0.02740  -0.01561  -0.00141
 Alpha virt. eigenvalues --    0.00252   0.01064   0.01181   0.01663   0.01744
 Alpha virt. eigenvalues --    0.02601   0.02694   0.02751   0.03160   0.03438
 Alpha virt. eigenvalues --    0.03764   0.04217   0.04661   0.05326   0.05489
 Alpha virt. eigenvalues --    0.05809   0.05847   0.06131   0.06800   0.07054
 Alpha virt. eigenvalues --    0.07293   0.07837   0.07877   0.08145   0.08429
 Alpha virt. eigenvalues --    0.08532   0.08908   0.09284   0.09433   0.09916
 Alpha virt. eigenvalues --    0.10072   0.10288   0.10841   0.11097   0.11353
 Alpha virt. eigenvalues --    0.11597   0.11851   0.11923   0.12314   0.12584
 Alpha virt. eigenvalues --    0.12884   0.13256   0.13331   0.13901   0.14055
 Alpha virt. eigenvalues --    0.14492   0.14693   0.14948   0.15024   0.15305
 Alpha virt. eigenvalues --    0.15360   0.15800   0.16251   0.16430   0.16627
 Alpha virt. eigenvalues --    0.16895   0.17185   0.17279   0.17489   0.17834
 Alpha virt. eigenvalues --    0.18059   0.18246   0.18355   0.18723   0.18912
 Alpha virt. eigenvalues --    0.19323   0.19433   0.19624   0.19793   0.19921
 Alpha virt. eigenvalues --    0.20353   0.20452   0.20625   0.20904   0.21173
 Alpha virt. eigenvalues --    0.21326   0.21415   0.21501   0.21723   0.22081
 Alpha virt. eigenvalues --    0.22211   0.22274   0.22450   0.22646   0.22820
 Alpha virt. eigenvalues --    0.23097   0.23308   0.23510   0.23997   0.24064
 Alpha virt. eigenvalues --    0.24080   0.24340   0.24745   0.24906   0.24951
 Alpha virt. eigenvalues --    0.25082   0.25490   0.25582   0.26012   0.26245
 Alpha virt. eigenvalues --    0.26282   0.26435   0.26604   0.26849   0.27042
 Alpha virt. eigenvalues --    0.27160   0.27370   0.27913   0.28034   0.28207
 Alpha virt. eigenvalues --    0.28484   0.28597   0.28879   0.28923   0.29197
 Alpha virt. eigenvalues --    0.29556   0.29646   0.29916   0.30112   0.30624
 Alpha virt. eigenvalues --    0.30896   0.31025   0.31222   0.31362   0.31816
 Alpha virt. eigenvalues --    0.32027   0.32195   0.32374   0.32476   0.33428
 Alpha virt. eigenvalues --    0.33474   0.33729   0.33951   0.34098   0.34476
 Alpha virt. eigenvalues --    0.34705   0.34766   0.35206   0.35356   0.35757
 Alpha virt. eigenvalues --    0.35985   0.36133   0.36465   0.36886   0.36999
 Alpha virt. eigenvalues --    0.37150   0.37371   0.37759   0.38009   0.38519
 Alpha virt. eigenvalues --    0.38807   0.38931   0.39304   0.39577   0.39664
 Alpha virt. eigenvalues --    0.40107   0.40290   0.40666   0.40906   0.41369
 Alpha virt. eigenvalues --    0.41750   0.42009   0.42406   0.42681   0.43204
 Alpha virt. eigenvalues --    0.43607   0.43770   0.44224   0.44474   0.44839
 Alpha virt. eigenvalues --    0.45286   0.45501   0.45887   0.46454   0.47285
 Alpha virt. eigenvalues --    0.47760   0.48142   0.48552   0.48826   0.49203
 Alpha virt. eigenvalues --    0.49558   0.50612   0.50892   0.51187   0.52068
 Alpha virt. eigenvalues --    0.52496   0.53053   0.54089   0.54687   0.54956
 Alpha virt. eigenvalues --    0.55244   0.55625   0.55874   0.56455   0.56935
 Alpha virt. eigenvalues --    0.57666   0.57969   0.58089   0.58311   0.58550
 Alpha virt. eigenvalues --    0.58918   0.59191   0.59902   0.60241   0.60897
 Alpha virt. eigenvalues --    0.61050   0.61564   0.61832   0.62113   0.62242
 Alpha virt. eigenvalues --    0.62983   0.63210   0.63729   0.64228   0.64732
 Alpha virt. eigenvalues --    0.64984   0.65763   0.65915   0.66352   0.66695
 Alpha virt. eigenvalues --    0.67207   0.67380   0.67521   0.68004   0.68473
 Alpha virt. eigenvalues --    0.68794   0.69267   0.69717   0.70274   0.70333
 Alpha virt. eigenvalues --    0.70684   0.71497   0.71609   0.71810   0.72400
 Alpha virt. eigenvalues --    0.72644   0.73038   0.73623   0.73719   0.74037
 Alpha virt. eigenvalues --    0.74480   0.75089   0.75330   0.75528   0.76225
 Alpha virt. eigenvalues --    0.76495   0.76871   0.77707   0.77931   0.78420
 Alpha virt. eigenvalues --    0.78648   0.79222   0.79416   0.79820   0.80318
 Alpha virt. eigenvalues --    0.80437   0.80856   0.81000   0.81167   0.81731
 Alpha virt. eigenvalues --    0.82297   0.82547   0.82746   0.83156   0.84379
 Alpha virt. eigenvalues --    0.84481   0.84920   0.85458   0.85821   0.86163
 Alpha virt. eigenvalues --    0.86367   0.87122   0.87649   0.87896   0.88604
 Alpha virt. eigenvalues --    0.88968   0.89076   0.90321   0.91139   0.91676
 Alpha virt. eigenvalues --    0.91948   0.93029   0.93652   0.94109   0.94564
 Alpha virt. eigenvalues --    0.94937   0.95167   0.95522   0.96275   0.96497
 Alpha virt. eigenvalues --    0.96867   0.97040   0.98027   0.98708   0.99268
 Alpha virt. eigenvalues --    0.99522   1.00020   1.00298   1.00745   1.01685
 Alpha virt. eigenvalues --    1.02288   1.02532   1.02922   1.03201   1.04064
 Alpha virt. eigenvalues --    1.04603   1.04913   1.05553   1.05939   1.06123
 Alpha virt. eigenvalues --    1.06769   1.06845   1.07352   1.07931   1.08579
 Alpha virt. eigenvalues --    1.09145   1.09615   1.10123   1.10534   1.10825
 Alpha virt. eigenvalues --    1.11045   1.12194   1.12377   1.12642   1.12829
 Alpha virt. eigenvalues --    1.13788   1.14351   1.15167   1.15944   1.16608
 Alpha virt. eigenvalues --    1.17071   1.17444   1.18012   1.18907   1.19086
 Alpha virt. eigenvalues --    1.19702   1.20010   1.20219   1.20867   1.21561
 Alpha virt. eigenvalues --    1.21722   1.22117   1.22601   1.23326   1.24987
 Alpha virt. eigenvalues --    1.25524   1.25594   1.26095   1.26715   1.27156
 Alpha virt. eigenvalues --    1.27533   1.27883   1.29024   1.29647   1.30141
 Alpha virt. eigenvalues --    1.30700   1.31268   1.31598   1.32687   1.33254
 Alpha virt. eigenvalues --    1.34027   1.34927   1.35703   1.37077   1.37896
 Alpha virt. eigenvalues --    1.38112   1.40296   1.42171   1.42653   1.43177
 Alpha virt. eigenvalues --    1.43585   1.44282   1.44855   1.45603   1.46350
 Alpha virt. eigenvalues --    1.47392   1.48087   1.48745   1.49985   1.51138
 Alpha virt. eigenvalues --    1.52838   1.53505   1.54024   1.54810   1.56772
 Alpha virt. eigenvalues --    1.57174   1.57726   1.58252   1.58690   1.59968
 Alpha virt. eigenvalues --    1.60148   1.60597   1.61239   1.61797   1.62814
 Alpha virt. eigenvalues --    1.63763   1.64260   1.64888   1.66131   1.66675
 Alpha virt. eigenvalues --    1.67281   1.67546   1.68568   1.69538   1.70084
 Alpha virt. eigenvalues --    1.71879   1.72573   1.73199   1.74361   1.75257
 Alpha virt. eigenvalues --    1.75891   1.77120   1.77493   1.78053   1.80768
 Alpha virt. eigenvalues --    1.81382   1.82261   1.82829   1.83475   1.85140
 Alpha virt. eigenvalues --    1.85708   1.86954   1.87557   1.88189   1.88433
 Alpha virt. eigenvalues --    1.89563   1.90359   1.90611   1.91236   1.91534
 Alpha virt. eigenvalues --    1.92099   1.92283   1.93352   1.93783   1.94916
 Alpha virt. eigenvalues --    1.95280   1.95384   1.96686   1.97304   1.97857
 Alpha virt. eigenvalues --    1.98315   1.98836   1.99703   2.00824   2.01157
 Alpha virt. eigenvalues --    2.02258   2.03333   2.03881   2.04935   2.06128
 Alpha virt. eigenvalues --    2.07209   2.07836   2.08905   2.09177   2.09353
 Alpha virt. eigenvalues --    2.11542   2.13804   2.14908   2.17230   2.18076
 Alpha virt. eigenvalues --    2.18521   2.19412   2.20856   2.21493   2.21815
 Alpha virt. eigenvalues --    2.24233   2.25932   2.26915   2.29267   2.30012
 Alpha virt. eigenvalues --    2.31780   2.32977   2.34809   2.34877   2.35262
 Alpha virt. eigenvalues --    2.36248   2.37276   2.37889   2.38894   2.39496
 Alpha virt. eigenvalues --    2.40235   2.41990   2.42732   2.43800   2.45142
 Alpha virt. eigenvalues --    2.45810   2.46184   2.47723   2.49541   2.50568
 Alpha virt. eigenvalues --    2.50916   2.52310   2.55035   2.59493   2.60006
 Alpha virt. eigenvalues --    2.60930   2.67265   2.68526   2.69133   2.69594
 Alpha virt. eigenvalues --    2.70401   2.71049   2.71348   2.72463   2.72667
 Alpha virt. eigenvalues --    2.72899   2.75679   2.75809   2.77170   2.77299
 Alpha virt. eigenvalues --    2.77573   2.77652   2.78908   2.80191   2.81122
 Alpha virt. eigenvalues --    2.82461   2.82659   2.83394   2.84375   2.84463
 Alpha virt. eigenvalues --    2.85172   2.86527   2.88069   2.89207   2.89815
 Alpha virt. eigenvalues --    2.90741   2.92028   2.92584   2.92872   2.94040
 Alpha virt. eigenvalues --    2.94473   2.95508   2.96818   2.98277   2.98605
 Alpha virt. eigenvalues --    2.99405   2.99873   3.00118   3.01139   3.01934
 Alpha virt. eigenvalues --    3.02133   3.02678   3.03263   3.03848   3.04063
 Alpha virt. eigenvalues --    3.04835   3.05095   3.05575   3.06318   3.06647
 Alpha virt. eigenvalues --    3.08272   3.08446   3.12103   3.12473   3.14709
 Alpha virt. eigenvalues --    3.16611   3.16974   3.18663   3.18864   3.21428
 Alpha virt. eigenvalues --    3.22551   3.23161   3.24831   3.28118   3.29945
 Alpha virt. eigenvalues --    3.31110   3.31421   3.32267   3.33261   3.33804
 Alpha virt. eigenvalues --    3.35117   3.36827   3.37469   3.39515   3.40020
 Alpha virt. eigenvalues --    3.40892   3.42522   3.43236   3.44385   3.44953
 Alpha virt. eigenvalues --    3.46254   3.46338   3.47556   3.47968   3.48529
 Alpha virt. eigenvalues --    3.50228   3.53316   3.53762   3.54939   3.56644
 Alpha virt. eigenvalues --    3.58595   3.58899   3.60229   3.61111   3.61820
 Alpha virt. eigenvalues --    3.61964   3.63038   3.66103   3.68625   3.70451
 Alpha virt. eigenvalues --    3.72135   3.76260   3.76658   3.77780   3.78986
 Alpha virt. eigenvalues --    3.79723   3.80880   3.81951   3.83859   3.84983
 Alpha virt. eigenvalues --    3.87551   3.87911   3.89187   3.90999   3.94215
 Alpha virt. eigenvalues --    3.94998   3.96284   4.05573   4.06395   4.10888
 Alpha virt. eigenvalues --    4.14123   4.18365   4.19717   4.25934   4.27697
 Alpha virt. eigenvalues --    4.28156   4.29954   4.43720   4.45212   4.69052
 Alpha virt. eigenvalues --    4.82727   4.85907   4.86735   4.87019   5.08205
 Alpha virt. eigenvalues --    5.10596   5.13726   5.19335   5.21028   5.24254
 Alpha virt. eigenvalues --    5.25133   5.28881   5.30977   5.32188   5.34349
 Alpha virt. eigenvalues --    5.37785   5.39905   5.40315   5.41193   5.42040
 Alpha virt. eigenvalues --    5.49472   5.52977   5.57689   5.59063   5.78018
 Alpha virt. eigenvalues --    5.95104   8.57715  17.74588  17.80983  17.82098
 Alpha virt. eigenvalues --   23.52125  23.54364  23.59901  23.73723  23.75383
 Alpha virt. eigenvalues --   23.79324  23.84598  23.89459  23.98252  23.99501
 Alpha virt. eigenvalues --   24.00460  24.00920  24.03723  24.11164  24.13505
 Alpha virt. eigenvalues --   24.14514  24.14543  24.18699  24.21516  24.22243
 Alpha virt. eigenvalues --   24.23750  24.27264  24.29783  24.30073  24.30653
 Alpha virt. eigenvalues --   35.61944  49.94054  49.95318  50.05427  50.10604
 Alpha virt. eigenvalues --   50.13095  50.13827  50.19570 189.83923
 Electronic spatial extent (au):  <R**2>=         155313.0351
 Charge=              0.0000 electrons
 Dipole moment (field-independent basis, Debye):
    X=            -17.5261    Y=             -3.5953    Z=             -6.9568  Tot=             19.1961
 Quadrupole moment (field-independent basis, Debye-Ang):
   XX=           -444.5687   YY=           -213.3717   ZZ=           -305.4001
   XY=            -61.5648   XZ=           -219.8536   YZ=            -66.3273
 Traceless Quadrupole moment (field-independent basis, Debye-Ang):
   XX=           -123.4552   YY=            107.7418   ZZ=             15.7134
   XY=            -61.5648   XZ=           -219.8536   YZ=            -66.3273
 Octapole moment (field-independent basis, Debye-Ang**2):
  XXX=          -8156.5716  YYY=          -2142.8538  ZZZ=          -5837.3353  XYY=          -1982.9065
  XXY=          -1315.6011  XXZ=          -4515.8089  XZZ=          -4413.7872  YZZ=          -1589.7521
  YYZ=          -1706.7157  XYZ=           -767.6571
 Hexadecapole moment (field-independent basis, Debye-Ang**3):
 XXXX=        -140430.3143 YYYY=         -19550.4426 ZZZZ=         -90671.1009 XXXY=         -26811.6299
 XXXZ=         -76518.1614 YYYX=         -21693.7512 YYYZ=         -14370.6255 ZZZX=         -70577.6795
 ZZZY=         -24847.0576 XXYY=         -22805.3329 XXZZ=         -66675.6876 YYZZ=         -18480.9071
 XXYZ=         -12851.4919 YYXZ=         -15526.7115 ZZXY=         -16704.5177
 N-N= 3.776884314618D+03 E-N=-1.212468398996D+04  KE= 1.950156200414D+03
  Exact polarizability: 389.365 114.528 336.783 -91.510-129.040 369.635
 Approx polarizability: 440.564  94.987 445.354 -96.184-127.729 461.518
 No NMR shielding tensors so no spin-rotation constants.
 Leave Link  601 at Wed Jan 13 23:20:14 2021, MaxMem=  5368709120 cpu:        11.2
 (Enter /usr/local/bin/G09/G09d//g09/l602.exe)
 FitSet:  NAtFit=    61 NAtPot=    61 NAtFrz=     0 MDM=    65 TotChg=   0.00000
 Breneman (CHELPG) radii used.
 Generate Potential Derived Charges using the Breneman model, NDens= 1.
 Grid spacing= 0.300 Box extension= 2.800
 NStep X,Y,Z=   62     50     52   Total possible points=      161200
 Number of Points to Fit=   30042

 **********************************************************************

            Electrostatic Properties Using The SCF Density

 **********************************************************************

       Atomic Center    1 is at   4.981328  0.071552 10.993252
       Atomic Center    2 is at   5.237190 -0.321152 11.796859
       Atomic Center    3 is at   3.721703 -0.115648 10.538604
       Atomic Center    4 is at   3.115443 -0.622336 11.027606
       Atomic Center    5 is at   3.348624  0.456768  9.338043
       Atomic Center    6 is at   2.486605  0.336960  9.009138
       Atomic Center    7 is at   4.260512  1.200576  8.637825
       Atomic Center    8 is at   4.008560  1.584128  7.828959
       Atomic Center    9 is at   5.554116  1.395680  9.108582
       Atomic Center   10 is at   6.571241  2.139654  8.393078
       Atomic Center   11 is at   7.424292  2.184832  8.762582
       Atomic Center   12 is at   6.352534  2.762240  7.236733
       Atomic Center   13 is at   5.487633  2.713152  6.900267
       Atomic Center   14 is at   7.313628  3.510208  6.440030
       Atomic Center   15 is at   6.859881  4.162080  5.285657
       Atomic Center   16 is at   5.964942  4.086784  5.044526
       Atomic Center   17 is at   7.706735  4.910298  4.500788
       Atomic Center   18 is at   9.054207  5.005312  4.845144
       Atomic Center   19 is at   9.516534  4.350528  5.975355
       Atomic Center   20 is at  10.415511  4.407104  6.204980
       Atomic Center   21 is at   8.656140  3.617536  6.763017
       Atomic Center   22 is at   8.980968  3.189056  7.521586
       Atomic Center   23 is at   7.209337  0.995072 10.903999
       Atomic Center   24 is at   7.243593  0.545792 11.752479
       Atomic Center   25 is at   7.874112  0.624832 10.319170
       Atomic Center   26 is at   7.379610  1.931072 11.030893
       Atomic Center   27 is at  11.211774  5.821504  4.267876
       Atomic Center   28 is at  11.572521  4.932928  4.304859
       Atomic Center   29 is at  11.643778  6.314048  3.566836
       Atomic Center   30 is at  11.360398  6.262464  5.106986
       Atomic Center   31 is at   5.874834  0.814528 10.306020
       Atomic Center   32 is at   7.303978  5.576563  3.386193
       Atomic Center   33 is at   9.824057  5.755027  4.009650
       Atomic Center   34 is at   6.491451  5.358080  3.188784
       Atomic Center   35 is at  11.625734  3.489158  8.897037
       Atomic Center   36 is at  11.799321  4.840243  8.824879
       Atomic Center   37 is at  11.333829  5.398848  9.405271
       Atomic Center   38 is at  12.684164  5.393856  7.871531
       Atomic Center   39 is at  12.895367  6.789120  7.750719
       Atomic Center   40 is at  12.443058  7.374848  8.313851
       Atomic Center   41 is at  13.756273  7.278336  6.816602
       Atomic Center   42 is at  13.881943  8.196864  6.744115
       Atomic Center   43 is at  14.450900  6.418048  5.966807
       Atomic Center   44 is at  15.035548  6.766656  5.332174
       Atomic Center   45 is at  14.279507  5.076032  6.059348
       Atomic Center   46 is at  14.754396  4.512768  5.493257
       Atomic Center   47 is at  13.388097  4.521920  7.004971
       Atomic Center   48 is at  13.186172  3.129984  7.116085
       Atomic Center   49 is at  13.649195  2.551744  6.553445
       Atomic Center   50 is at  12.324882  2.624128  8.035244
       Atomic Center   51 is at  12.196412  1.704768  8.095239
       Atomic Center   52 is at   9.413483  3.682848 10.235176
       Atomic Center   53 is at  11.304968  2.659072 11.327088
       Atomic Center   54 is at  10.131317  1.509414  9.570298
       Atomic Center   55 is at  10.537122  2.790195 10.108447
       Atomic Center   56 is at   3.560232  2.189824  5.300286
       Atomic Center   57 is at   4.022351  2.146560  4.620450
       Atomic Center   58 is at   3.325427  3.020160  5.397922
       Atomic Center   59 is at   4.825874  4.922944  2.761915
       Atomic Center   60 is at   4.705227  4.293120  2.368577
       Atomic Center   61 is at   4.096599  5.366400  2.843607
   30042 points will be used for fitting atomic charges
 Fitting point charges to electrostatic potential
 Charges from ESP fit, RMS=   0.00416 RRMS=   0.10824:
 ESP charges:
               1
     1  C    0.083476
     2  H    0.136630
     3  C   -0.257798
     4  H    0.165759
     5  C    0.121081
     6  H    0.104759
     7  C   -0.423453
     8  H    0.284257
     9  C    0.484176
    10  C   -0.479093
    11  H    0.281155
    12  C    0.055849
    13  H    0.078229
    14  C    0.085342
    15  C   -0.469956
    16  H    0.195192
    17  C    0.380283
    18  C    0.312784
    19  C   -0.345738
    20  H    0.197265
    21  C   -0.033665
    22  H    0.053725
    23  C   -0.025612
    24  H    0.089787
    25  H    0.115911
    26  H    0.106768
    27  C    0.179137
    28  H   -0.014530
    29  H    0.040544
    30  H    0.010261
    31  N   -0.140090
    32  O   -0.853025
    33  O   -0.322985
    34  H    0.706261
    35  C   -0.090332
    36  C   -0.187844
    37  H    0.124552
    38  C    0.152218
    39  C   -0.244869
    40  H    0.155286
    41  C   -0.090486
    42  H    0.103116
    43  C   -0.104187
    44  H    0.109980
    45  C   -0.244214
    46  H    0.140125
    47  C    0.195331
    48  C   -0.313841
    49  H    0.163336
    50  C   -0.018061
    51  H    0.093795
    52  O   -0.767117
    53  O   -0.772046
    54  O   -0.782052
    55  S    1.529212
    56  O   -0.943211
    57  H    0.476654
    58  H    0.458661
    59  O   -1.104961
    60  H    0.531721
    61  H    0.526547
 Sum of ESP charges =   0.00000
 ESP charges with hydrogens summed into heavy atoms:
               1
     1  C    0.220107
     3  C   -0.092039
     5  C    0.225840
     7  C   -0.139196
     9  C    0.484176
    10  C   -0.197938
    12  C    0.134079
    14  C    0.085342
    15  C   -0.274763
    17  C    0.380283
    18  C    0.312784
    19  C   -0.148473
    21  C    0.020060
    23  C    0.286854
    27  C    0.215412
    31  N   -0.140090
    32  O   -0.146764
    33  O   -0.322985
    35  C   -0.090332
    36  C   -0.063291
    38  C    0.152218
    39  C   -0.089584
    41  C    0.012630
    43  C    0.005793
    45  C   -0.104089
    47  C    0.195331
    48  C   -0.150505
    50  C    0.075733
    52  O   -0.767117
    53  O   -0.772046
    54  O   -0.782052
    55  S    1.529212
    56  O   -0.007896
    59  O   -0.046693
 Charge=   0.00000 Dipole=   -17.3724    -3.6194    -6.8216 Tot=    19.0114
 -----------------------------------------------------------------

              Electrostatic Properties (Atomic Units)

 -----------------------------------------------------------------
    Center     Electric         -------- Electric Field --------
               Potential          X             Y             Z
 -----------------------------------------------------------------
    1 Atom    -14.677093
    2 Atom     -1.021404
    3 Atom    -14.728978
    4 Atom     -1.041999
    5 Atom    -14.716580
    6 Atom     -1.042320
    7 Atom    -14.727709
    8 Atom     -1.050759
    9 Atom    -14.647070
   10 Atom    -14.763872
   11 Atom     -1.090929
   12 Atom    -14.749655
   13 Atom     -1.077759
   14 Atom    -14.756458
   15 Atom    -14.782168
   16 Atom     -1.087235
   17 Atom    -14.707959
   18 Atom    -14.705371
   19 Atom    -14.794289
   20 Atom     -1.110932
   21 Atom    -14.794560
   22 Atom     -1.122554
   23 Atom    -14.757078
   24 Atom     -1.073194
   25 Atom     -1.090182
   26 Atom     -1.087763
   27 Atom    -14.781609
   28 Atom     -1.125578
   29 Atom     -1.120736
   30 Atom     -1.128762
   31 Atom    -18.246464
   32 Atom    -22.356743
   33 Atom    -22.335806
   34 Atom     -0.986451
   35 Atom    -14.787532
   36 Atom    -14.809600
   37 Atom     -1.133282
   38 Atom    -14.777543
   39 Atom    -14.803652
   40 Atom     -1.121514
   41 Atom    -14.806753
   42 Atom     -1.121719
   43 Atom    -14.806175
   44 Atom     -1.119787
   45 Atom    -14.803809
   46 Atom     -1.118410
   47 Atom    -14.778166
   48 Atom    -14.809646
   49 Atom     -1.124067
   50 Atom    -14.812528
   51 Atom     -1.138003
   52 Atom    -22.465476
   53 Atom    -22.476034
   54 Atom    -22.465405
   55 Atom    -59.109862
   56 Atom    -22.335335
   57 Atom     -0.941075
   58 Atom     -0.942377
   59 Atom    -22.324713
   60 Atom     -0.900093
   61 Atom     -0.922283
 -----------------------------------------------------------------
 Leave Link  602 at Wed Jan 13 23:20:24 2021, MaxMem=  5368709120 cpu:        73.1
 (Enter /usr/local/bin/G09/G09d//g09/l106.exe)
 NDeriv=   3 NFrqRd=  2 NDerD0=   0 MskFDP=      31 MskDFD=      31 MskDF0=       0
 At 1st pt F.D. properties on file   721 Mask=      31 NFrqRd=     2 NDeriv=     1 ND12= 1 LenFil=      94:
 Frequencies=    0.000000    0.072000
 Property number 1 -- Alpha(-w,w) frequency  1    0.000000:
                 1             2             3 
      1   0.389365D+03  0.114528D+03 -0.915097D+02
      2   0.114528D+03  0.336783D+03 -0.129040D+03
      3  -0.915097D+02 -0.129040D+03  0.369635D+03
 Property number 1 -- Alpha(-w,w) frequency  2    0.072000:
                 1             2             3 
      1   0.442910D+03  0.156986D+03 -0.136906D+03
      2   0.156986D+03  0.384131D+03 -0.174832D+03
      3  -0.136906D+03 -0.174832D+03  0.427393D+03
 Property number 5 -- Beta(-w,w,0) frequency  1    0.000000:
                 1 
      1  -0.233209D+04
      2  -0.214451D+04
      3  -0.195387D+04
      4   0.235233D+04
      5   0.219166D+04
      6  -0.254890D+04
      7  -0.214451D+04
      8  -0.195387D+04
      9  -0.180304D+04
     10   0.219166D+04
     11   0.195987D+04
     12  -0.215300D+04
     13   0.235233D+04
     14   0.219166D+04
     15   0.195987D+04
     16  -0.254890D+04
     17  -0.215300D+04
     18   0.230227D+04
 Property number 5 -- Beta(-w,w,0) frequency  2    0.072000:
                 1 
      1  -0.592817D+04
      2  -0.545069D+04
      3  -0.506708D+04
      4   0.604495D+04
      5   0.575172D+04
      6  -0.667169D+04
      7  -0.560184D+04
      8  -0.508972D+04
      9  -0.470770D+04
     10   0.567776D+04
     11   0.521171D+04
     12  -0.580600D+04
     13   0.625593D+04
     14   0.571912D+04
     15   0.515665D+04
     16  -0.652907D+04
     17  -0.575104D+04
     18   0.634320D+04
 Property number 6 -- Beta(w,w,-2w) frequency  1    0.000000:
                 1 
      1  -0.233209D+04
      2  -0.214451D+04
      3  -0.195387D+04
      4   0.235233D+04
      5   0.219166D+04
      6  -0.254890D+04
      7  -0.214451D+04
      8  -0.195387D+04
      9  -0.180304D+04
     10   0.219166D+04
     11   0.195987D+04
     12  -0.215300D+04
     13   0.235233D+04
     14   0.219166D+04
     15   0.195987D+04
     16  -0.254890D+04
     17  -0.215300D+04
     18   0.230227D+04
[...]
     6         -4.36095617         -3.63752824        -22.05121634
     1         -4.11115156         -3.44718983        -23.77953451
     6         -6.17718249         -2.21333235        -20.84674566
     1         -7.14607458         -1.07894116        -21.77503240
     6        -13.76098060          3.73728294        -20.25828545
     1        -15.09320155          4.87287097        -20.73945186
     1        -12.17652335          4.36960510        -20.87368459
     1        -14.07702684          2.09934097        -20.97025007
     6         -0.52041560         -6.54794466        -24.32733965
     1         -0.10885483         -4.81336025        -24.66057783
     1          0.88916416         -7.60040932        -24.76691418
     1         -1.96373471         -7.02753992        -25.31449970
     7        -13.66530803          3.54150322        -17.48239630
     8         -1.80750646         -7.33593140        -16.89457367
     8         -1.07701850         -6.84610066        -21.73269000
     1         -2.01108064         -7.19628052        -15.28016904
     6         -7.65042015         -0.51732273        -27.38632883
     6         -7.71905738         -2.98913054        -28.11460428
     1         -9.19436222         -3.92254867        -27.90666532
     6         -5.55648739         -4.13592041        -29.18429936
     6         -5.52406743         -6.69736315        -29.95979092
     1         -6.96635645         -7.68369869        -29.77237637
     6         -3.39696107         -7.72446471        -30.97856460
     1         -3.39758080         -9.41138683        -31.47084456
     6         -1.21721898         -6.27663056        -31.29056163
     1          0.22389141         -7.00438998        -31.98803267
     6         -1.18429099         -3.81378476        -30.58324066
     1          0.27433765         -2.86449859        -30.81553761
     6         -3.33823133         -2.67036795        -29.49674825
     6         -3.34790291         -0.11628413        -28.73180058
     1         -1.90038004          0.85898085        -28.94068758
     6         -5.44553659          0.93606758        -27.69623094
     1         -5.42522045          2.61943598        -27.19027045
     8        -11.62779393         -0.92502312        -24.55443169
     8        -11.88146735          1.79492302        -28.20331806
     8         -9.43861096          3.01135704        -24.56833940
    16        -10.37322356          0.94007241        -26.09035274
     8         -7.05271806         -1.31121474        -10.54753526
     1         -5.53054574         -1.36257195        -10.86394820
     1         -7.59034878         -2.86105692        -10.50316943
     8         -2.39308816         -6.94130346        -11.96014171
     1         -1.65355727         -5.94958609        -11.25969156
     1         -3.17414291         -7.90179806        -10.91480006

 Electric dipole moment (dipole orientation):
 (Debye = 10**-18 statcoulomb cm , SI units = C m)
                  (au)            (Debye)         (10**-30 SI)
   Tot        0.755231D+01      0.191961D+02      0.640312D+02
   x          0.000000D+00      0.000000D+00      0.000000D+00
   y          0.000000D+00      0.000000D+00      0.000000D+00
   z          0.755231D+01      0.191961D+02      0.640312D+02

 Dipole polarizability, Alpha (dipole orientation).
 (esu units = cm**3 , SI units = C**2 m**2 J**-1)
 Alpha(0;0):
               (au)            (10**-24 esu)      (10**-40 SI)
   iso        0.365261D+03      0.541261D+02      0.602234D+02
   aniso      0.341383D+03      0.505878D+02      0.562865D+02
   xx         0.396216D+03      0.587131D+02      0.653271D+02
   yx        -0.156084D+03     -0.231292D+02     -0.257347D+02
   yy         0.353544D+03      0.523898D+02      0.582915D+02
   zx        -0.943102D+02     -0.139753D+02     -0.155496D+02
   zy         0.697013D+02      0.103287D+02      0.114922D+02
   zz         0.346024D+03      0.512754D+02      0.570516D+02
 Alpha(-w;w) w=  632.8nm:
                  (au)         (10**-24 esu)      (10**-40 SI)
   iso        0.418145D+03      0.619627D+02      0.689428D+02
   aniso      0.473969D+03      0.702349D+02      0.781469D+02
   xx         0.470719D+03      0.697533D+02      0.776110D+02
   yx        -0.212041D+03     -0.314212D+02     -0.349608D+02
   yy         0.405548D+03      0.600961D+02      0.668659D+02
   zx        -0.132652D+03     -0.196570D+02     -0.218713D+02
   zy         0.100319D+03      0.148658D+02      0.165404D+02
   zz         0.378168D+03      0.560387D+02      0.623514D+02

 First dipole hyperpolarizability, Beta (dipole orientation).
 ||, _|_  parallel and perpendicular components, (z) with respect to z axis,
 vector components x,y,z.  Values do not include the 1/n! factor of 1/2.
 (esu units = statvolt**-1 cm**4 , SI units = C**3 m**3 J**-2)
 Beta(0;0,0):
               (au)            (10**-30 esu)      (10**-50 SI)
   || (z)     0.299146D+04      0.258439D+02      0.959169D+01
   _|_(z)     0.997152D+03      0.861462D+01      0.319723D+01
   x         -0.237790D+05     -0.205432D+03     -0.762440D+02
   y          0.189734D+05      0.163915D+03      0.608355D+02
   z          0.149573D+05      0.129219D+03      0.479585D+02
   ||         0.677982D+04      0.585724D+02      0.217386D+02
   xxx       -0.406794D+04     -0.351438D+02     -0.130433D+02
   xxy        0.318416D+04      0.275087D+02      0.102096D+02
   yxy       -0.251195D+04     -0.217013D+02     -0.805422D+01
   yyy        0.203023D+04      0.175396D+02      0.650965D+01
   xxz        0.250112D+04      0.216077D+02      0.801949D+01
   yxz       -0.197898D+04     -0.170969D+02     -0.634534D+01
   yyz        0.156107D+04      0.134864D+02      0.500535D+01
   zxz       -0.134644D+04     -0.116322D+02     -0.431717D+01
   zyz        0.111007D+04      0.959011D+01      0.355927D+01
   zzz        0.923574D+03      0.797896D+01      0.296131D+01
 Beta(-w;w,0) w=  632.8nm:
                  (au)         (10**-30 esu)      (10**-50 SI)
   || (z)     0.759151D+04      0.655847D+02      0.243411D+02
   _|_(z)     0.256105D+04      0.221255D+02      0.821165D+01
   x         -0.628117D+05     -0.542644D+03     -0.201397D+03
   y          0.499962D+05      0.431929D+03      0.160306D+03
   z          0.379575D+05      0.327924D+03      0.121706D+03
   ||         0.177603D+05      0.153435D+03      0.569459D+02
   xxx       -0.107411D+05     -0.927949D+02     -0.344399D+02
   yxx        0.844288D+04      0.729399D+02      0.270709D+02
   yyx       -0.665528D+04     -0.574964D+02     -0.213392D+02
   zxx        0.637578D+04      0.550818D+02      0.204431D+02
   zyx       -0.502647D+04     -0.434248D+02     -0.161167D+02
   zzx       -0.364953D+04     -0.315291D+02     -0.117017D+02
   xxy        0.845520D+04      0.730464D+02      0.271104D+02
   yxy       -0.669858D+04     -0.578705D+02     -0.214781D+02
   yyy        0.536322D+04      0.463341D+02      0.171964D+02
   zxy       -0.508910D+04     -0.439658D+02     -0.163175D+02
   zyy        0.401466D+04      0.346836D+02      0.128725D+02
   zzy        0.299028D+04      0.258337D+02      0.958793D+01
   xxz        0.642009D+04      0.554646D+02      0.205851D+02
   yxz       -0.511589D+04     -0.441973D+02     -0.164034D+02
   yyz        0.406199D+04      0.350924D+02      0.130242D+02
   zxz       -0.344318D+04     -0.297464D+02     -0.110401D+02
   zyz        0.278766D+04      0.240832D+02      0.893826D+01
   zzz        0.223152D+04      0.192786D+02      0.715508D+01
 Beta(-2w;w,w) w=  632.8nm:
                  (au)         (10**-30 esu)      (10**-50 SI)
   || (z)    -0.890656D+04     -0.769458D+02     -0.285577D+02
   _|_(z)    -0.205949D+03     -0.177923D+01     -0.660345D+00
   x          0.656818D+05      0.567440D+03      0.210600D+03
   y         -0.537688D+05     -0.464520D+03     -0.172402D+03
   z         -0.445328D+05     -0.384729D+03     -0.142788D+03
   ||         0.191712D+05      0.165624D+03      0.614697D+02
   xxx        0.105915D+05      0.915025D+02      0.339603D+02
   yxx       -0.878104D+04     -0.758613D+02     -0.281552D+02
   zxx       -0.416814D+04     -0.360095D+02     -0.133646D+02
   xyx       -0.904847D+04     -0.781717D+02     -0.290127D+02
   yyx        0.747424D+04      0.645716D+02      0.239651D+02
   zyx        0.318641D+04      0.275281D+02      0.102168D+02
   xyy        0.702443D+04      0.606856D+02      0.225229D+02
   yyy       -0.573983D+04     -0.495876D+02     -0.184040D+02
   zyy       -0.221865D+04     -0.191674D+02     -0.711381D+01
   xzx       -0.811049D+04     -0.700683D+02     -0.260052D+02
   yzx        0.632416D+04      0.546358D+02      0.202775D+02
   zzx        0.556245D+04      0.480552D+02      0.178352D+02
   xzy        0.827664D+04      0.715038D+02      0.265379D+02
   yzy       -0.656502D+04     -0.567167D+02     -0.210498D+02
   zzy       -0.476534D+04     -0.411688D+02     -0.152794D+02
   xzz        0.809427D+03      0.699282D+01      0.259531D+01
   yzz       -0.140661D+03     -0.121520D+01     -0.451011D+00
   zzz       -0.293166D+04     -0.253273D+02     -0.939998D+01

 Second dipole hyperpolarizability, Gamma (dipole orientation).
 ||, _|_  isotropic parallel and perpendicular components.
 Values do not include the 1/n! factor of 1/6.
 (esu units = statvolt**-2 cm**5 , SI units = C**4 m**4 J**-3)
 Gamma(0;0,0,0):
               (au)            (10**-36 esu)      (10**-61 SI)
   ||         0.288263D+06      0.145190D+03      0.179743D+03
   _|_        0.960878D+05      0.483965D+02      0.599144D+02
   xxxx       0.334791D+06      0.168624D+03      0.208755D+03
   xxyx      -0.229223D+06     -0.115453D+03     -0.142930D+03
   xxyy       0.190064D+06      0.957295D+02      0.118512D+03
   yxyy      -0.149442D+06     -0.752692D+02     -0.931826D+02
   yyyy       0.159970D+06      0.805722D+02      0.997476D+02
   xxzx      -0.186245D+06     -0.938061D+02     -0.116131D+03
   xxzy       0.144661D+06      0.728612D+02      0.902014D+02
   yxzy      -0.118140D+06     -0.595035D+02     -0.736647D+02
   yyzy       0.985697D+05      0.496465D+02      0.614619D+02
   xxzz       0.124657D+06      0.627857D+02      0.777281D+02
   yxzz      -0.876007D+05     -0.441218D+02     -0.546223D+02
   yyzz       0.902090D+05      0.454355D+02      0.562488D+02
   zxzz      -0.607428D+05     -0.305943D+02     -0.378755D+02
   zyzz       0.504689D+05      0.254196D+02      0.314693D+02
   zzzz       0.136674D+06      0.688387D+02      0.852216D+02
 Gamma(-w;w,0,0) w=  632.8nm:
                  (au)         (10**-36 esu)      (10**-61 SI)
   ||         0.107600D+07      0.541949D+03      0.670927D+03
   _|_        0.350686D+06      0.176630D+03      0.218666D+03
   xxxx       0.133937D+07      0.674601D+03      0.835150D+03
   yxxx      -0.101328D+07     -0.510357D+03     -0.631817D+03
   yyxx       0.808006D+06      0.406968D+03      0.503823D+03
   zxxx      -0.771968D+06     -0.388817D+03     -0.481352D+03
   zyxx       0.603567D+06      0.303999D+03      0.376347D+03
   zzxx       0.480407D+06      0.241967D+03      0.299552D+03
   xxyx      -0.101499D+07     -0.511221D+03     -0.632887D+03
   yxyx       0.814343D+06      0.410160D+03      0.507774D+03
   yyyx      -0.646016D+06     -0.325379D+03     -0.402815D+03
   zxyx       0.611828D+06      0.308159D+03      0.381498D+03
   zyyx      -0.488572D+06     -0.246079D+03     -0.304643D+03
   zzyx      -0.373000D+06     -0.187869D+03     -0.232580D+03
   xxyy       0.822165D+06      0.414099D+03      0.512651D+03
   yxyy      -0.655932D+06     -0.330373D+03     -0.408998D+03
   yyyy       0.572392D+06      0.288297D+03      0.356908D+03
   zxyy      -0.499660D+06     -0.251664D+03     -0.311557D+03
   zyyy       0.403694D+06      0.203328D+03      0.251718D+03
   zzyy       0.330183D+06      0.166303D+03      0.205881D+03
   xxzx      -0.761329D+06     -0.383458D+03     -0.474718D+03
   yxzx       0.601967D+06      0.303193D+03      0.375349D+03
   yyzx      -0.483432D+06     -0.243490D+03     -0.301438D+03
   zxzx       0.445861D+06      0.224566D+03      0.278011D+03
   zyzx      -0.340939D+06     -0.171721D+03     -0.212589D+03
   zzzx      -0.243215D+06     -0.122500D+03     -0.151654D+03
   xxzy       0.601228D+06      0.302820D+03      0.374889D+03
   yxzy      -0.486320D+06     -0.244944D+03     -0.303239D+03
   yyzy       0.396071D+06      0.199489D+03      0.246966D+03
   zxzy      -0.344173D+06     -0.173350D+03     -0.214605D+03
   zyzy       0.300055D+06      0.151129D+03      0.187096D+03
   zzzy       0.197791D+06      0.996214D+02      0.123330D+03
   xxzz       0.460229D+06      0.231803D+03      0.286970D+03
   yxzz      -0.355760D+06     -0.179186D+03     -0.221830D+03
   yyzz       0.309750D+06      0.156012D+03      0.193141D+03
   zxzz      -0.234083D+06     -0.117901D+03     -0.145960D+03
   zyzz       0.188462D+06      0.949225D+02      0.117513D+03
   zzzz       0.317350D+06      0.159840D+03      0.197880D+03
 Gamma(-2w;w,w,0) w=  632.8nm:
                  (au)         (10**-36 esu)      (10**-61 SI)
   ||         0.109899D+08      0.553528D+04      0.685263D+04
   _|_        0.575436D+07      0.289829D+04      0.218666D+03
   xxxx       0.560852D+07      0.282484D+04      0.349712D+04
   yxxx      -0.495480D+07     -0.249558D+04     -0.308951D+04
   zxxx       0.381697D+06      0.192249D+03      0.238003D+03
   xyxx      -0.325666D+07     -0.164028D+04     -0.203065D+04
   yyxx       0.303530D+07      0.152879D+04      0.189262D+04
   zyxx      -0.805836D+06     -0.405875D+03     -0.502469D+03
   xyyx       0.292201D+07      0.147173D+04      0.182199D+04
   yyyx      -0.272658D+07     -0.137329D+04     -0.170013D+04
   zyyx       0.758245D+06      0.381905D+03      0.472795D+03
   xzxx      -0.662267D+07     -0.333564D+04     -0.412948D+04
   yzxx       0.549297D+07      0.276664D+04      0.342508D+04
   zzxx       0.220587D+07      0.111103D+04      0.137545D+04
   xzyx       0.275254D+07      0.138637D+04      0.171632D+04
   yzyx      -0.228095D+07     -0.114884D+04     -0.142226D+04
   zzyx      -0.945293D+06     -0.476115D+03     -0.589426D+03
   xzzx       0.212319D+08      0.106938D+05      0.132389D+05
   yzzx      -0.176467D+08     -0.888811D+04     -0.110034D+05
   zzzx      -0.654016D+07     -0.329408D+04     -0.407804D+04
   xxxy      -0.268349D+08     -0.135159D+05     -0.167326D+05
   yxxy       0.226667D+08      0.114165D+05      0.141336D+05
   zxxy       0.516128D+07      0.259958D+04      0.321825D+04
   xyxy       0.172655D+08      0.869611D+04      0.107657D+05
   yyxy      -0.146386D+08     -0.737301D+04     -0.912772D+04
   zyxy      -0.294211D+07     -0.148185D+04     -0.183452D+04
   xyyy      -0.140017D+08     -0.705224D+04     -0.873060D+04
   yyyy       0.119750D+08      0.603142D+04      0.746684D+04
   zyyy       0.226189D+07      0.113925D+04      0.141038D+04
   xzxy       0.584461D+07      0.294375D+04      0.364434D+04
   yzxy      -0.485782D+07     -0.244674D+04     -0.302904D+04
   zzxy      -0.189089D+07     -0.952386D+03     -0.117904D+04
   xzyy       0.392537D+07      0.197709D+04      0.244762D+04
   yzyy      -0.329010D+07     -0.165712D+04     -0.205150D+04
   zzyy      -0.706049D+06     -0.355616D+03     -0.440249D+03
   xzzy      -0.745360D+07     -0.375415D+04     -0.464760D+04
   yzzy       0.621941D+07      0.313253D+04      0.387804D+04
   zzzy       0.291565D+07      0.146852D+04      0.181802D+04
   xxxz       0.121125D+08      0.610069D+04      0.755260D+04
   yxxz      -0.992150D+07     -0.499716D+04     -0.618643D+04
   zxxz      -0.421118D+07     -0.212104D+04     -0.262583D+04
   xyxz      -0.785348D+07     -0.395556D+04     -0.489695D+04
   yyxz       0.637393D+07      0.321036D+04      0.397439D+04
   zyxz       0.303910D+07      0.153070D+04      0.189500D+04
   xyyz       0.613981D+07      0.309244D+04      0.382841D+04
   yyyz      -0.494894D+07     -0.249263D+04     -0.308585D+04
   zyyz      -0.249504D+07     -0.125668D+04     -0.155575D+04
   xzxz       0.161743D+07      0.814651D+03      0.100853D+04
   yzxz      -0.130025D+07     -0.654899D+03     -0.810758D+03
   zzxz      -0.554394D+06     -0.279232D+03     -0.345686D+03
   xzyz      -0.488414D+07     -0.245999D+04     -0.304545D+04
   yzyz       0.409627D+07      0.206317D+04      0.255418D+04
   zzyz       0.128545D+07      0.647440D+03      0.801525D+03
   xzzz      -0.107639D+08     -0.542143D+04     -0.671167D+04
   yzzz       0.895984D+07      0.451280D+04      0.558680D+04
   zzzz       0.357857D+07      0.180242D+04      0.223138D+04

 ----------------------------------------------------------------------
 1\1\GINC-FLAME3\SP\RM062X\6-311+G(d)\C25H27N1O7S1\DANIELMACHADO\15-Jan
 -2021\0\\#p M062X/6-311+g(d) polar=gamma pop=chelpg density=current No
 Symm\\ONL_VSNS_0_M062X\\0,1\C,0,4.981328,0.071552,10.993252\H,0,5.2371
 9,-0.321152,11.796859\C,0,3.721703,-0.115648,10.538604\H,0,3.115443,-0
 .622336,11.027606\C,0,3.348624,0.456768,9.338043\H,0,2.486605,0.33696,
 9.009138\C,0,4.260512,1.200576,8.637825\H,0,4.00856,1.584128,7.828959\
 C,0,5.554116,1.39568,9.108582\C,0,6.571241,2.139654,8.393078\H,0,7.424
 292,2.184832,8.762582\C,0,6.352534,2.76224,7.236733\H,0,5.487633,2.713
 152,6.900267\C,0,7.313628,3.510208,6.44003\C,0,6.859881,4.16208,5.2856
 57\H,0,5.964942,4.086784,5.044526\C,0,7.706735,4.910298,4.500788\C,0,9
 .054207,5.005312,4.845144\C,0,9.516534,4.350528,5.975355\H,0,10.415511
 ,4.407104,6.20498\C,0,8.65614,3.617536,6.763017\H,0,8.980968,3.189056,
 7.521586\C,0,7.209337,0.995072,10.903999\H,0,7.243593,0.545792,11.7524
 79\H,0,7.874112,0.624832,10.31917\H,0,7.37961,1.931072,11.030893\C,0,1
 1.211774,5.821504,4.267876\H,0,11.572521,4.932928,4.304859\H,0,11.6437
 78,6.314048,3.566836\H,0,11.360398,6.262464,5.106986\N,0,5.874834,0.81
 4528,10.30602\O,0,7.303978,5.576563,3.386193\O,0,9.824057,5.755027,4.0
 0965\H,0,6.491451,5.35808,3.188784\C,0,11.625734,3.489158,8.897037\C,0
 ,11.799321,4.840243,8.824879\H,0,11.333829,5.398848,9.405271\C,0,12.68
 4164,5.393856,7.871531\C,0,12.895367,6.78912,7.750719\H,0,12.443058,7.
 374848,8.313851\C,0,13.756273,7.278336,6.816602\H,0,13.881943,8.196864
 ,6.744115\C,0,14.4509,6.418048,5.966807\H,0,15.035548,6.766656,5.33217
 4\C,0,14.279507,5.076032,6.059348\H,0,14.754396,4.512768,5.493257\C,0,
 13.388097,4.52192,7.004971\C,0,13.186172,3.129984,7.116085\H,0,13.6491
 95,2.551744,6.553445\C,0,12.324882,2.624128,8.035244\H,0,12.196412,1.7
 04768,8.095239\O,0,9.413483,3.682848,10.235176\O,0,11.304968,2.659072,
 11.327088\O,0,10.131317,1.509414,9.570298\S,0,10.537122,2.790195,10.10
 8447\O,0,3.560232,2.189824,5.300286\H,0,4.022351,2.14656,4.62045\H,0,3
 .325427,3.02016,5.397922\O,0,4.825874,4.922944,2.761915\H,0,4.705227,4
 .29312,2.368577\H,0,4.096599,5.3664,2.843607\\Version=EM64L-G09RevD.01
 \HF=-1947.5101196\RMSD=7.736e-09\Dipole=-6.8953168,-1.4145075,-2.73700
 11\Polar=389.3654501,114.5279111,336.7828384,-91.5096637,-129.039883,3
 69.6349474\HyperPolar=-2332.0879807,-2144.5128848,-1953.8710199,-1803.
 043184,2352.3301876,2191.6648123,1959.8660388,-2548.9024302,-2152.9969
 416,2302.2658553\DQPolar=8977.4282198,-2471.0514308,-6506.3767891,4274
 .1953824,3992.2084374,1088.1576613,2077.4040803,3086.0791405,-5163.483
 2208,6592.3229999,-197.2099161,4075.4949698,-5116.9917437,-3473.672579
 6,8590.6643233,-2443.7895496,4666.6175513,495.3317688\Quadrupole=-91.7
 859049,80.1033599,11.682545,-45.7719302,-163.4557576,-49.3127079\PG=C0
 1 [X(C25H27N1O7S1)]\\@


 ...THOSE SCIENCES ARE VAIN AND FULL OF ERRORS WHICH 
 ARE NOT BORN FROM EXPERIMENT, THE MOTHER OF CERTAINTY...

                          -- LEONARDO DA VINCI, 1452-1519
 Job cpu time:      11 days  5 hours 31 minutes 32.2 seconds.
 File lengths (MBytes):  RWF=   3503 Int=      0 D2E=      0 Chk=    122 Scr=      1
 Normal termination of Gaussian 09 at Fri Jan 15 04:04:41 2021.
Fri Jan 15 04:04:41 -02 2021
