Fri Jan 15 04:04:41 -02 2021
flame3
 Entering Gaussian System, Link 0=/usr/local/bin/G09/G09d/g09/g09
 Initial command:
 /usr/local/bin/G09/G09d//g09/l1.exe "/work/danielmachado/job-23478/Gau-12455.inp" -scrdir="/work/danielmachado/job-23478/"
 Entering Link 1 = /usr/local/bin/G09/G09d//g09/l1.exe PID=     12457.
  
 Copyright (c) 1988,1990,1992,1993,1995,1998,2003,2009,2013,
            Gaussian, Inc.  All Rights Reserved.
  
 This is part of the Gaussian(R) 09 program.  It is based on
 the Gaussian(R) 03 system (copyright 2003, Gaussian, Inc.),
 the Gaussian(R) 98 system (copyright 1998, Gaussian, Inc.),
 the Gaussian(R) 94 system (copyright 1995, Gaussian, Inc.),
 the Gaussian 92(TM) system (copyright 1992, Gaussian, Inc.),
 the Gaussian 90(TM) system (copyright 1990, Gaussian, Inc.),
 the Gaussian 88(TM) system (copyright 1988, Gaussian, Inc.),
 the Gaussian 86(TM) system (copyright 1986, Carnegie Mellon
 University), and the Gaussian 82(TM) system (copyright 1983,
 Carnegie Mellon University). Gaussian is a federally registered
 trademark of Gaussian, Inc.
  
 This software contains proprietary and confidential information,
 including trade secrets, belonging to Gaussian, Inc.
  
 This software is provided under written license and may be
 used, copied, transmitted, or stored only in accord with that
 written license.
  
 The following legend is applicable only to US Government
 contracts under FAR:
  
                    RESTRICTED RIGHTS LEGEND
  
 Use, reproduction and disclosure by the US Government is
 subject to restrictions as set forth in subparagraphs (a)
 and (c) of the Commercial Computer Software - Restricted
 Rights clause in FAR 52.227-19.
  
 Gaussian, Inc.
 340 Quinnipiac St., Bldg. 40, Wallingford CT 06492
  
  
 ---------------------------------------------------------------
 Warning -- This program may not be used in any manner that
 competes with the business of Gaussian, Inc. or will provide
 assistance to any competitor of Gaussian, Inc.  The licensee
 of this program is prohibited from giving any competitor of
 Gaussian, Inc. access to this program.  By using this program,
 the user acknowledges that Gaussian, Inc. is engaged in the
 business of creating and licensing software in the field of
 computational chemistry and represents and warrants to the
 licensee that it is not a competitor of Gaussian, Inc. and that
 it will not use this program in any manner prohibited above.
 ---------------------------------------------------------------
  

 Cite this work as:
 Gaussian 09, Revision D.01,
 M. J. Frisch, G. W. Trucks, H. B. Schlegel, G. E. Scuseria, 
 M. A. Robb, J. R. Cheeseman, G. Scalmani, V. Barone, B. Mennucci, 
 G. A. Petersson, H. Nakatsuji, M. Caricato, X. Li, H. P. Hratchian, 
 A. F. Izmaylov, J. Bloino, G. Zheng, J. L. Sonnenberg, M. Hada, 
 M. Ehara, K. Toyota, R. Fukuda, J. Hasegawa, M. Ishida, T. Nakajima, 
 Y. Honda, O. Kitao, H. Nakai, T. Vreven, J. A. Montgomery, Jr., 
 J. E. Peralta, F. Ogliaro, M. Bearpark, J. J. Heyd, E. Brothers, 
 K. N. Kudin, V. N. Staroverov, T. Keith, R. Kobayashi, J. Normand, 
 K. Raghavachari, A. Rendell, J. C. Burant, S. S. Iyengar, J. Tomasi, 
 M. Cossi, N. Rega, J. M. Millam, M. Klene, J. E. Knox, J. B. Cross, 
 V. Bakken, C. Adamo, J. Jaramillo, R. Gomperts, R. E. Stratmann, 
 O. Yazyev, A. J. Austin, R. Cammi, C. Pomelli, J. W. Ochterski, 
 R. L. Martin, K. Morokuma, V. G. Zakrzewski, G. A. Voth, 
 P. Salvador, J. J. Dannenberg, S. Dapprich, A. D. Daniels, 
 O. Farkas, J. B. Foresman, J. V. Ortiz, J. Cioslowski, 
 and D. J. Fox, Gaussian, Inc., Wallingford CT, 2013.
 
 ******************************************
 Gaussian 09:  EM64L-G09RevD.01 24-Apr-2013
                15-Jan-2021 
 ******************************************
 %nprocshared=8
 Will use up to    8 processors via shared memory.
 %chk=ONL_VSNS_0_M06.chk
 %mem=40GB
 ---------------------------------------------------------------
 #p M06/6-311+g(d) polar=gamma pop=chelpg density=current NoSymm
 ---------------------------------------------------------------
 1/30=1,38=101,83=1,84=49/1,6;
 2/12=2,15=1,17=6,18=5,40=1/2;
 3/5=4,6=6,7=11,11=2,16=1,25=1,30=1,74=-54/1,2,3;
 4/69=2/1;
 5/5=2,38=5,96=-2,98=1/2;
 8/6=4,10=90,11=11/1;
 10/6=20001,13=10,31=1,60=-2,72=3/2;
 6/7=2,8=2,9=2,10=2,12=2,15=8,20=3,22=-1,28=1/1,2;
 1/38=100,84=49/6(1);
 99/9=1/99;
 3/5=4,6=6,7=11,11=2,14=-3,16=1,25=1,30=1,74=-54/1,2,3;
 4/5=5,16=3,69=2/1;
 5/5=2,38=5,96=-2,98=1/2;
 8/6=4,10=90,11=11/1;
 10/6=20001,13=10,31=1,60=-2,72=3/2;
 6/7=2,8=2,9=2,10=2,12=2,15=8,20=3,22=-1,28=1/1,2;
 1/38=100,84=49/6(-6);
 99/9=1/99;
 Leave Link    1 at Fri Jan 15 04:04:41 2021, MaxMem=  5368709120 cpu:         0.6
 (Enter /usr/local/bin/G09/G09d//g09/l101.exe)
 --------------
 ONL_VSNS_0_M06
 --------------
 Symbolic Z-matrix:
 Charge =  0 Multiplicity = 1
 C                     4.98133   0.07155   10.99325 
 H                     5.23719  -0.32115   11.79686 
 C                     3.7217   -0.11565   10.5386 
 H                     3.11544  -0.62234   11.02761 
 C                     3.34862   0.45677   9.33804 
 H                     2.4866    0.33696   9.00914 
 C                     4.26051   1.20058   8.63782 
 H                     4.00856   1.58413   7.82896 
 C                     5.55412   1.39568   9.10858 
 C                     6.57124   2.13965   8.39308 
 H                     7.42429   2.18483   8.76258 
 C                     6.35253   2.76224   7.23673 
 H                     5.48763   2.71315   6.90027 
 C                     7.31363   3.51021   6.44003 
 C                     6.85988   4.16208   5.28566 
 H                     5.96494   4.08678   5.04453 
 C                     7.70674   4.9103    4.50079 
 C                     9.05421   5.00531   4.84514 
 C                     9.51653   4.35053   5.97536 
 H                     10.41551   4.4071    6.20498 
 C                     8.65614   3.61754   6.76302 
 H                     8.98097   3.18906   7.52159 
 C                     7.20934   0.99507   10.904 
 H                     7.24359   0.54579   11.75248 
 H                     7.87411   0.62483   10.31917 
 H                     7.37961   1.93107   11.03089 
 C                     11.21177   5.8215    4.26788 
 H                     11.57252   4.93293   4.30486 
 H                     11.64378   6.31405   3.56684 
 H                     11.3604   6.26246   5.10699 
 N                     5.87483   0.81453   10.30602 
 O                     7.30398   5.57656   3.38619 
 O                     9.82406   5.75503   4.00965 
 H                     6.49145   5.35808   3.18878 
 C                     11.62573   3.48916   8.89704 
 C                     11.79932   4.84024   8.82488 
 H                     11.33383   5.39885   9.40527 
 C                     12.68416   5.39386   7.87153 
 C                     12.89537   6.78912   7.75072 
 H                     12.44306   7.37485   8.31385 
 C                     13.75627   7.27834   6.8166 
 H                     13.88194   8.19686   6.74412 
 C                     14.4509   6.41805   5.96681 
 H                     15.03555   6.76666   5.33217 
 C                     14.27951   5.07603   6.05935 
 H                     14.7544   4.51277   5.49326 
 C                     13.3881   4.52192   7.00497 
 C                     13.18617   3.12998   7.11608 
 H                     13.6492   2.55174   6.55344 
 C                     12.32488   2.62413   8.03524 
 H                     12.19641   1.70477   8.09524 
 O                     9.41348   3.68285   10.23518 
 O                     11.30497   2.65907   11.32709 
 O                     10.13132   1.50941   9.5703 
 S                     10.53712   2.7902    10.10845 
 O                     3.56023   2.18982   5.30029 
 H                     4.02235   2.14656   4.62045 
 H                     3.32543   3.02016   5.39792 
 O                     4.82587   4.92294   2.76192 
 H                     4.70523   4.29312   2.36858 
 H                     4.0966    5.3664    2.84361 
 
 NAtoms=     61 NQM=       61 NQMF=       0 NMMI=      0 NMMIF=      0
                NMic=       0 NMicF=      0.
                    Isotopes and Nuclear Properties:
 (Nuclear quadrupole moments (NQMom) in fm**2, nuclear magnetic moments (NMagM)
  in nuclear magnetons)

  Atom         1           2           3           4           5           6           7           8           9          10
 IAtWgt=          12           1          12           1          12           1          12           1          12          12
 AtmWgt=  12.0000000   1.0078250  12.0000000   1.0078250  12.0000000   1.0078250  12.0000000   1.0078250  12.0000000  12.0000000
 NucSpn=           0           1           0           1           0           1           0           1           0           0
 AtZEff=   0.0000000   0.0000000   0.0000000   0.0000000   0.0000000   0.0000000   0.0000000   0.0000000   0.0000000   0.0000000
 NQMom=    0.0000000   0.0000000   0.0000000   0.0000000   0.0000000   0.0000000   0.0000000   0.0000000   0.0000000   0.0000000
 NMagM=    0.0000000   2.7928460   0.0000000   2.7928460   0.0000000   2.7928460   0.0000000   2.7928460   0.0000000   0.0000000
 AtZNuc=   6.0000000   1.0000000   6.0000000   1.0000000   6.0000000   1.0000000   6.0000000   1.0000000   6.0000000   6.0000000

  Atom        11          12          13          14          15          16          17          18          19          20
 IAtWgt=           1          12           1          12          12           1          12          12          12           1
 AtmWgt=   1.0078250  12.0000000   1.0078250  12.0000000  12.0000000   1.0078250  12.0000000  12.0000000  12.0000000   1.0078250
 NucSpn=           1           0           1           0           0           1           0           0           0           1
 AtZEff=   0.0000000   0.0000000   0.0000000   0.0000000   0.0000000   0.0000000   0.0000000   0.0000000   0.0000000   0.0000000
 NQMom=    0.0000000   0.0000000   0.0000000   0.0000000   0.0000000   0.0000000   0.0000000   0.0000000   0.0000000   0.0000000
 NMagM=    2.7928460   0.0000000   2.7928460   0.0000000   0.0000000   2.7928460   0.0000000   0.0000000   0.0000000   2.7928460
 AtZNuc=   1.0000000   6.0000000   1.0000000   6.0000000   6.0000000   1.0000000   6.0000000   6.0000000   6.0000000   1.0000000

  Atom        21          22          23          24          25          26          27          28          29          30
 IAtWgt=          12           1          12           1           1           1          12           1           1           1
 AtmWgt=  12.0000000   1.0078250  12.0000000   1.0078250   1.0078250   1.0078250  12.0000000   1.0078250   1.0078250   1.0078250
 NucSpn=           0           1           0           1           1           1           0           1           1           1
 AtZEff=   0.0000000   0.0000000   0.0000000   0.0000000   0.0000000   0.0000000   0.0000000   0.0000000   0.0000000   0.0000000
 NQMom=    0.0000000   0.0000000   0.0000000   0.0000000   0.0000000   0.0000000   0.0000000   0.0000000   0.0000000   0.0000000
 NMagM=    0.0000000   2.7928460   0.0000000   2.7928460   2.7928460   2.7928460   0.0000000   2.7928460   2.7928460   2.7928460
 AtZNuc=   6.0000000   1.0000000   6.0000000   1.0000000   1.0000000   1.0000000   6.0000000   1.0000000   1.0000000   1.0000000

  Atom        31          32          33          34          35          36          37          38          39          40
 IAtWgt=          14          16          16           1          12          12           1          12          12           1
 AtmWgt=  14.0030740  15.9949146  15.9949146   1.0078250  12.0000000  12.0000000   1.0078250  12.0000000  12.0000000   1.0078250
 NucSpn=           2           0           0           1           0           0           1           0           0           1
 AtZEff=   0.0000000   0.0000000   0.0000000   0.0000000   0.0000000   0.0000000   0.0000000   0.0000000   0.0000000   0.0000000
 NQMom=    2.0440000   0.0000000   0.0000000   0.0000000   0.0000000   0.0000000   0.0000000   0.0000000   0.0000000   0.0000000
 NMagM=    0.4037610   0.0000000   0.0000000   2.7928460   0.0000000   0.0000000   2.7928460   0.0000000   0.0000000   2.7928460
 AtZNuc=   7.0000000   8.0000000   8.0000000   1.0000000   6.0000000   6.0000000   1.0000000   6.0000000   6.0000000   1.0000000

  Atom        41          42          43          44          45          46          47          48          49          50
 IAtWgt=          12           1          12           1          12           1          12          12           1          12
 AtmWgt=  12.0000000   1.0078250  12.0000000   1.0078250  12.0000000   1.0078250  12.0000000  12.0000000   1.0078250  12.0000000
 NucSpn=           0           1           0           1           0           1           0           0           1           0
 AtZEff=   0.0000000   0.0000000   0.0000000   0.0000000   0.0000000   0.0000000   0.0000000   0.0000000   0.0000000   0.0000000
 NQMom=    0.0000000   0.0000000   0.0000000   0.0000000   0.0000000   0.0000000   0.0000000   0.0000000   0.0000000   0.0000000
 NMagM=    0.0000000   2.7928460   0.0000000   2.7928460   0.0000000   2.7928460   0.0000000   0.0000000   2.7928460   0.0000000
 AtZNuc=   6.0000000   1.0000000   6.0000000   1.0000000   6.0000000   1.0000000   6.0000000   6.0000000   1.0000000   6.0000000

  Atom        51          52          53          54          55          56          57          58          59          60
 IAtWgt=           1          16          16          16          32          16           1           1          16           1
 AtmWgt=   1.0078250  15.9949146  15.9949146  15.9949146  31.9720718  15.9949146   1.0078250   1.0078250  15.9949146   1.0078250
 NucSpn=           1           0           0           0           0           0           1           1           0           1
 AtZEff=   0.0000000   0.0000000   0.0000000   0.0000000   0.0000000   0.0000000   0.0000000   0.0000000   0.0000000   0.0000000
 NQMom=    0.0000000   0.0000000   0.0000000   0.0000000   0.0000000   0.0000000   0.0000000   0.0000000   0.0000000   0.0000000
 NMagM=    2.7928460   0.0000000   0.0000000   0.0000000   0.0000000   0.0000000   2.7928460   2.7928460   0.0000000   2.7928460
 AtZNuc=   1.0000000   8.0000000   8.0000000   8.0000000  16.0000000   8.0000000   1.0000000   1.0000000   8.0000000   1.0000000

  Atom        61
 IAtWgt=           1
 AtmWgt=   1.0078250
 NucSpn=           1
 AtZEff=   0.0000000
 NQMom=    0.0000000
 NMagM=    2.7928460
 AtZNuc=   1.0000000
 Using perturbation frequencies:    0.000000    0.072000
 Leave Link  101 at Fri Jan 15 04:04:42 2021, MaxMem=  5368709120 cpu:         1.3
 (Enter /usr/local/bin/G09/G09d//g09/l106.exe)
 Differentiate once with respect to electric field.
 Nuclear step= 0.001000 Angstroms, electric field step= 0.000333 atomic units, NStep=1.
 Leave Link  106 at Fri Jan 15 04:04:42 2021, MaxMem=  5368709120 cpu:         0.0
 (Enter /usr/local/bin/G09/G09d//g09/l202.exe)
 Symmetry turned off by external request.
 Stoichiometry    C25H27NO7S
 Framework group  C1[X(C25H27NO7S)]
 Deg. of freedom   177
 Full point group                 C1      NOp   1
                          Input orientation:                          
 ---------------------------------------------------------------------
 Center     Atomic      Atomic             Coordinates (Angstroms)
 Number     Number       Type             X           Y           Z
 ---------------------------------------------------------------------
      1          6           0        4.981328    0.071552   10.993252
      2          1           0        5.237190   -0.321152   11.796859
      3          6           0        3.721703   -0.115648   10.538604
      4          1           0        3.115443   -0.622336   11.027606
      5          6           0        3.348624    0.456768    9.338043
      6          1           0        2.486605    0.336960    9.009138
      7          6           0        4.260512    1.200576    8.637825
      8          1           0        4.008560    1.584128    7.828959
      9          6           0        5.554116    1.395680    9.108582
     10          6           0        6.571241    2.139654    8.393078
     11          1           0        7.424292    2.184832    8.762582
     12          6           0        6.352534    2.762240    7.236733
     13          1           0        5.487633    2.713152    6.900267
     14          6           0        7.313628    3.510208    6.440030
     15          6           0        6.859881    4.162080    5.285657
     16          1           0        5.964942    4.086784    5.044526
     17          6           0        7.706735    4.910298    4.500788
     18          6           0        9.054207    5.005312    4.845144
     19          6           0        9.516534    4.350528    5.975355
     20          1           0       10.415511    4.407104    6.204980
     21          6           0        8.656140    3.617536    6.763017
     22          1           0        8.980968    3.189056    7.521586
     23          6           0        7.209337    0.995072   10.903999
     24          1           0        7.243593    0.545792   11.752479
     25          1           0        7.874112    0.624832   10.319170
     26          1           0        7.379610    1.931072   11.030893
     27          6           0       11.211774    5.821504    4.267876
     28          1           0       11.572521    4.932928    4.304859
     29          1           0       11.643778    6.314048    3.566836
     30          1           0       11.360398    6.262464    5.106986
     31          7           0        5.874834    0.814528   10.306020
     32          8           0        7.303978    5.576563    3.386193
     33          8           0        9.824057    5.755027    4.009650
     34          1           0        6.491451    5.358080    3.188784
     35          6           0       11.625734    3.489158    8.897037
     36          6           0       11.799321    4.840243    8.824879
     37          1           0       11.333829    5.398848    9.405271
     38          6           0       12.684164    5.393856    7.871531
     39          6           0       12.895367    6.789120    7.750719
     40          1           0       12.443058    7.374848    8.313851
     41          6           0       13.756273    7.278336    6.816602
     42          1           0       13.881943    8.196864    6.744115
     43          6           0       14.450900    6.418048    5.966807
     44          1           0       15.035548    6.766656    5.332174
     45          6           0       14.279507    5.076032    6.059348
     46          1           0       14.754396    4.512768    5.493257
     47          6           0       13.388097    4.521920    7.004971
     48          6           0       13.186172    3.129984    7.116085
     49          1           0       13.649195    2.551744    6.553445
     50          6           0       12.324882    2.624128    8.035244
     51          1           0       12.196412    1.704768    8.095239
     52          8           0        9.413483    3.682848   10.235176
     53          8           0       11.304968    2.659072   11.327088
     54          8           0       10.131317    1.509414    9.570298
     55         16           0       10.537122    2.790195   10.108447
     56          8           0        3.560232    2.189824    5.300286
     57          1           0        4.022351    2.146560    4.620450
     58          1           0        3.325427    3.020160    5.397922
     59          8           0        4.825874    4.922944    2.761915
     60          1           0        4.705227    4.293120    2.368577
     61          1           0        4.096599    5.366400    2.843607
 ---------------------------------------------------------------------
 Rotational constants (GHZ):      0.1356477      0.0772839      0.0516543
 Leave Link  202 at Fri Jan 15 04:04:42 2021, MaxMem=  5368709120 cpu:         0.0
 (Enter /usr/local/bin/G09/G09d//g09/l301.exe)
 Standard basis: 6-311+G(d) (5D, 7F)
 Ernie: Thresh=  0.10000D-02 Tol=  0.10000D-05 Strict=F.
   837 basis functions,  1373 primitive gaussians,   871 cartesian basis functions
   128 alpha electrons      128 beta electrons
       nuclear repulsion energy      3776.8843146181 Hartrees.
 IExCor= 4235 DFT=T Ex+Corr=M06 ExCW=0 ScaHFX=  0.270000
 ScaDFX=  1.000000  1.000000  1.000000  1.000000 ScalE2=  1.000000  1.000000
 IRadAn=      0 IRanWt=     -1 IRanGd=            0 ICorTp=0 IEmpDi=  4
 NAtoms=   61 NActive=   61 NUniq=   61 SFac= 1.00D+00 NAtFMM=   60 NAOKFM=T Big=T
 Integral buffers will be    131072 words long.
 Raffenetti 2 integral format.
 Two-electron integral symmetry is turned off.
 Leave Link  301 at Fri Jan 15 04:04:42 2021, MaxMem=  5368709120 cpu:         0.6
 (Enter /usr/local/bin/G09/G09d//g09/l302.exe)
 NPDir=0 NMtPBC=     1 NCelOv=     1 NCel=       1 NClECP=     1 NCelD=      1
         NCelK=      1 NCelE2=     1 NClLst=     1 CellRange=     0.0.
 One-electron integrals computed using PRISM.
 NBasis=   837 RedAO= T EigKep=  1.14D-06  NBF=   837
 NBsUse=   827 1.00D-06 EigRej=  8.99D-07 NBFU=   827
 Precomputing XC quadrature grid using
 IXCGrd= 4 IRadAn=           0 IRanWt=          -1 IRanGd=           0 AccXCQ= 0.00D+00.
 Generated NRdTot=       0 NPtTot=           0 NUsed=           0 NTot=          32
 NSgBfM=   853   853   853   853   853 MxSgAt=    61 MxSgA2=    61.
 Leave Link  302 at Fri Jan 15 04:04:44 2021, MaxMem=  5368709120 cpu:        16.2
 (Enter /usr/local/bin/G09/G09d//g09/l303.exe)
 DipDrv:  MaxL=1.
 Leave Link  303 at Fri Jan 15 04:04:44 2021, MaxMem=  5368709120 cpu:         1.3
 (Enter /usr/local/bin/G09/G09d//g09/l401.exe)
 ExpMin= 4.05D-02 ExpMax= 9.34D+04 ExpMxC= 3.17D+03 IAcc=2 IRadAn=         4 AccDes= 0.00D+00
 Harris functional with IExCor= 1009 and IRadAn=       4 diagonalized for initial guess.
 HarFok:  IExCor= 1009 AccDes= 0.00D+00 IRadAn=         4 IDoV= 1 UseB2=F ITyADJ=14
 ICtDFT=  3500011 ScaDFX=  1.000000  1.000000  1.000000  1.000000
 FoFCou: FMM=F IPFlag=           0 FMFlag=      100000 FMFlg1=        2001
         NFxFlg=           0 DoJE=T BraDBF=F KetDBF=T FulRan=T
         wScrn=  0.000000 ICntrl=     500 IOpCl=  0 I1Cent=   200000004 NGrid=           0
         NMat0=    1 NMatS0=      1 NMatT0=    0 NMatD0=    1 NMtDS0=    0 NMtDT0=    0
 Symmetry not used in FoFCou.
 Harris En= -1947.02327971623    
 JPrj=0 DoOrth=F DoCkMO=F.
 Leave Link  401 at Fri Jan 15 04:04:51 2021, MaxMem=  5368709120 cpu:        47.6
 (Enter /usr/local/bin/G09/G09d//g09/l502.exe)
 Closed shell SCF:
 Using DIIS extrapolation, IDIIS=  1040.
 Two-electron integral symmetry not used.
 IVT=     2306789 IEndB=     2306789 NGot=  5368709120 MDV=  5367178484
 LenX=  5367178484 LenY=  5366418972
 Requested convergence on RMS density matrix=1.00D-08 within 128 cycles.
 Requested convergence on MAX density matrix=1.00D-06.
 Requested convergence on             energy=1.00D-06.
 No special actions if energy rises.
 Fock matrices will be formed incrementally for  20 cycles.

 Cycle   1  Pass 1  IDiag  1:
 FoFJK:  IHMeth= 1 ICntrl=       0 DoSepK=F KAlg= 0 I1Cent=   0 FoldK=F
 IRaf= 800000000 NMat=   1 IRICut=       1 DoRegI=T DoRafI=F ISym2E= 0.
 FoFCou: FMM=T IPFlag=           0 FMFlag=      100000 FMFlg1=        2001
         NFxFlg=           0 DoJE=F BraDBF=F KetDBF=F FulRan=T
         wScrn=  0.000000 ICntrl=       0 IOpCl=  0 I1Cent=           0 NGrid=           0
         NMat0=    1 NMatS0=      1 NMatT0=    0 NMatD0=    1 NMtDS0=    0 NMtDT0=    0
 Symmetry not used in FoFCou.
 FMM levels:  10  Number of levels for PrismC:   9
 E= -1945.95700959732    
 DIIS: error= 4.47D-02 at cycle   1 NSaved=   1.
 NSaved= 1 IEnMin= 1 EnMin= -1945.95700959732     IErMin= 1 ErrMin= 4.47D-02
 ErrMax= 4.47D-02  0.00D+00 EMaxC= 1.00D-01 BMatC= 1.48D+00 BMatP= 1.48D+00
 IDIUse=3 WtCom= 5.53D-01 WtEn= 4.47D-01
 Coeff-Com:  0.100D+01
 Coeff-En:   0.100D+01
 Coeff:      0.100D+01
 Gap=     0.114 Goal=   None    Shift=    0.000
 GapD=    0.114 DampG=1.000 DampE=0.500 DampFc=0.5000 IDamp=-1.
 Damping current iteration by 5.00D-01
 RMSDP=1.37D-01 MaxDP=2.45D+01              OVMax= 8.54D-01

 Cycle   2  Pass 1  IDiag  1:
 RMSU=  5.14D-02    CP:  1.45D+00
 E= -1946.07239186234     Delta-E=       -0.115382265020 Rises=F Damp=T
 DIIS: error= 1.13D-02 at cycle   2 NSaved=   2.
 NSaved= 2 IEnMin= 2 EnMin= -1946.07239186234     IErMin= 2 ErrMin= 1.13D-02
 ErrMax= 1.13D-02  0.00D+00 EMaxC= 1.00D-01 BMatC= 2.56D-01 BMatP= 1.48D+00
 IDIUse=3 WtCom= 8.87D-01 WtEn= 1.13D-01
 Coeff-Com:  0.205D+00 0.795D+00
 Coeff-En:   0.449D+00 0.551D+00
 Coeff:      0.233D+00 0.767D+00
 Gap=     0.001 Goal=   None    Shift=    0.000
 RMSDP=4.95D-02 MaxDP=7.73D+00 DE=-1.15D-01 OVMax= 9.53D-01

 Cycle   3  Pass 1  IDiag  1:
 RMSU=  2.05D-02    CP:  1.15D+00  3.55D-01
 E= -1946.77732823421     Delta-E=       -0.704936371862 Rises=F Damp=F
 DIIS: error= 3.05D-02 at cycle   3 NSaved=   3.
 NSaved= 3 IEnMin= 3 EnMin= -1946.77732823421     IErMin= 2 ErrMin= 1.13D-02
 ErrMax= 3.05D-02  0.00D+00 EMaxC= 1.00D-01 BMatC= 3.25D-01 BMatP= 2.56D-01
 IDIUse=2 WtCom= 0.00D+00 WtEn= 1.00D+00
 Coeff-En:   0.000D+00 0.866D-01 0.913D+00
 Coeff:      0.000D+00 0.866D-01 0.913D+00
 Gap=     0.260 Goal=   None    Shift=    0.000
 RMSDP=2.92D-02 MaxDP=2.50D+00 DE=-7.05D-01 OVMax= 9.55D-01

 Cycle   4  Pass 1  IDiag  1:
 RMSU=  2.56D-02    CP:  1.02D+00  4.02D-01  7.76D-01
 E= -1941.37212965265     Delta-E=        5.405198581555 Rises=F Damp=F
 DIIS: error= 9.21D-02 at cycle   4 NSaved=   4.
 NSaved= 4 IEnMin= 3 EnMin= -1946.77732823421     IErMin= 2 ErrMin= 1.13D-02
 ErrMax= 9.21D-02  0.00D+00 EMaxC= 1.00D-01 BMatC= 2.85D+00 BMatP= 2.56D-01
 IDIUse=2 WtCom= 0.00D+00 WtEn= 1.00D+00
 Coeff-En:   0.000D+00 0.000D+00 0.895D+00 0.105D+00
 Coeff:      0.000D+00 0.000D+00 0.895D+00 0.105D+00
 Gap=    -0.002 Goal=   None    Shift=    0.000
 RMSDP=4.42D-02 MaxDP=5.65D+00 DE= 5.41D+00 OVMax= 9.21D-01

 Cycle   5  Pass 1  IDiag  1:
 RMSU=  2.99D-02    CP:  1.18D+00  5.24D-01  7.11D-01 -7.25D-02
 E= -1946.91413305000     Delta-E=       -5.542003397352 Rises=F Damp=F
 DIIS: error= 2.15D-02 at cycle   5 NSaved=   5.
 NSaved= 5 IEnMin= 5 EnMin= -1946.91413305000     IErMin= 2 ErrMin= 1.13D-02
 ErrMax= 2.15D-02  0.00D+00 EMaxC= 1.00D-01 BMatC= 2.15D-01 BMatP= 2.56D-01
 IDIUse=3 WtCom= 7.85D-01 WtEn= 2.15D-01
 Coeff-Com:  0.411D-01 0.166D+00 0.440D+00 0.388D-01 0.314D+00
 Coeff-En:   0.000D+00 0.000D+00 0.366D+00 0.000D+00 0.634D+00
 Coeff:      0.323D-01 0.131D+00 0.424D+00 0.305D-01 0.383D+00
 Gap=     0.127 Goal=   None    Shift=    0.000
 RMSDP=2.15D-02 MaxDP=2.80D+00 DE=-5.54D+00 OVMax= 1.28D-01

 Cycle   6  Pass 1  IDiag  1:
 RMSU=  7.49D-03    CP:  1.12D+00  4.99D-01  5.14D-01 -1.00D-01  3.75D-01
 E= -1947.07153952202     Delta-E=       -0.157406472014 Rises=F Damp=F
 DIIS: error= 7.68D-03 at cycle   6 NSaved=   6.
 NSaved= 6 IEnMin= 6 EnMin= -1947.07153952202     IErMin= 6 ErrMin= 7.68D-03
 ErrMax= 7.68D-03  0.00D+00 EMaxC= 1.00D-01 BMatC= 2.42D-02 BMatP= 2.15D-01
 IDIUse=3 WtCom= 9.23D-01 WtEn= 7.68D-02
 Coeff-Com: -0.524D-02 0.419D-01 0.124D+00 0.446D-02 0.256D+00 0.579D+00
 Coeff-En:   0.000D+00 0.000D+00 0.000D+00 0.000D+00 0.105D+00 0.895D+00
 Coeff:     -0.483D-02 0.387D-01 0.115D+00 0.412D-02 0.244D+00 0.603D+00
 Gap=     0.099 Goal=   None    Shift=    0.000
 RMSDP=5.69D-03 MaxDP=4.93D-01 DE=-1.57D-01 OVMax= 5.36D-02

 Cycle   7  Pass 1  IDiag  1:
 RMSU=  3.01D-03    CP:  1.13D+00  5.50D-01  5.25D-01 -2.16D-02  4.84D-01
                    CP:  1.11D+00
 E= -1947.09248792933     Delta-E=       -0.020948407313 Rises=F Damp=F
 DIIS: error= 1.42D-03 at cycle   7 NSaved=   7.
 NSaved= 7 IEnMin= 7 EnMin= -1947.09248792933     IErMin= 7 ErrMin= 1.42D-03
 ErrMax= 1.42D-03  0.00D+00 EMaxC= 1.00D-01 BMatC= 1.49D-03 BMatP= 2.42D-02
 IDIUse=3 WtCom= 9.86D-01 WtEn= 1.42D-02
 Coeff-Com: -0.807D-02 0.193D-01 0.595D-05-0.144D-02 0.578D-01 0.300D+00
 Coeff-Com:  0.632D+00
 Coeff-En:   0.000D+00 0.000D+00 0.000D+00 0.000D+00 0.000D+00 0.000D+00
 Coeff-En:   0.100D+01
 Coeff:     -0.795D-02 0.190D-01 0.587D-05-0.142D-02 0.570D-01 0.296D+00
 Coeff:      0.637D+00
 Gap=     0.091 Goal=   None    Shift=    0.000
 RMSDP=1.64D-03 MaxDP=1.41D-01 DE=-2.09D-02 OVMax= 1.07D-02

 Cycle   8  Pass 1  IDiag  1:
 RMSU=  9.21D-04    CP:  1.13D+00  5.68D-01  5.14D-01 -2.96D-02  5.11D-01
                    CP:  1.17D+00  9.65D-01
 E= -1947.09362638480     Delta-E=       -0.001138455472 Rises=F Damp=F
 DIIS: error= 7.89D-04 at cycle   8 NSaved=   8.
 NSaved= 8 IEnMin= 8 EnMin= -1947.09362638480     IErMin= 8 ErrMin= 7.89D-04
 ErrMax= 7.89D-04  0.00D+00 EMaxC= 1.00D-01 BMatC= 2.07D-04 BMatP= 1.49D-03
 IDIUse=3 WtCom= 9.92D-01 WtEn= 7.89D-03
 Coeff-Com: -0.283D-02 0.591D-02-0.111D-01-0.260D-03-0.453D-02 0.675D-01
 Coeff-Com:  0.347D+00 0.598D+00
 Coeff-En:   0.000D+00 0.000D+00 0.000D+00 0.000D+00 0.000D+00 0.000D+00
 Coeff-En:   0.943D-01 0.906D+00
 Coeff:     -0.281D-02 0.586D-02-0.110D-01-0.258D-03-0.449D-02 0.670D-01
 Coeff:      0.345D+00 0.601D+00
 Gap=     0.093 Goal=   None    Shift=    0.000
 RMSDP=7.64D-04 MaxDP=8.32D-02 DE=-1.14D-03 OVMax= 4.88D-03

 Cycle   9  Pass 1  IDiag  1:
 RMSU=  4.11D-04    CP:  1.13D+00  5.65D-01  5.24D-01 -2.82D-02  4.95D-01
                    CP:  1.18D+00  1.02D+00  9.92D-01
 E= -1947.09380936696     Delta-E=       -0.000182982154 Rises=F Damp=F
 DIIS: error= 1.91D-04 at cycle   9 NSaved=   9.
 NSaved= 9 IEnMin= 9 EnMin= -1947.09380936696     IErMin= 9 ErrMin= 1.91D-04
 ErrMax= 1.91D-04  0.00D+00 EMaxC= 1.00D-01 BMatC= 2.11D-05 BMatP= 2.07D-04
 IDIUse=3 WtCom= 9.98D-01 WtEn= 1.91D-03
 Coeff-Com: -0.594D-03 0.122D-02-0.577D-02 0.406D-04-0.835D-02 0.434D-02
 Coeff-Com:  0.103D+00 0.306D+00 0.600D+00
 Coeff-En:   0.000D+00 0.000D+00 0.000D+00 0.000D+00 0.000D+00 0.000D+00
 Coeff-En:   0.000D+00 0.000D+00 0.100D+01
 Coeff:     -0.593D-03 0.122D-02-0.576D-02 0.405D-04-0.833D-02 0.433D-02
 Coeff:      0.103D+00 0.306D+00 0.601D+00
 Gap=     0.093 Goal=   None    Shift=    0.000
 RMSDP=2.10D-04 MaxDP=3.54D-02 DE=-1.83D-04 OVMax= 1.79D-03

 Cycle  10  Pass 1  IDiag  1:
 RMSU=  1.30D-04    CP:  1.13D+00  5.66D-01  5.23D-01 -2.73D-02  4.98D-01
                    CP:  1.19D+00  1.05D+00  1.05D+00  1.04D+00
 E= -1947.09382738727     Delta-E=       -0.000018020314 Rises=F Damp=F
 DIIS: error= 8.95D-05 at cycle  10 NSaved=  10.
 NSaved=10 IEnMin=10 EnMin= -1947.09382738727     IErMin=10 ErrMin= 8.95D-05
 ErrMax= 8.95D-05  0.00D+00 EMaxC= 1.00D-01 BMatC= 3.68D-06 BMatP= 2.11D-05
 IDIUse=1 WtCom= 1.00D+00 WtEn= 0.00D+00
 Coeff-Com: -0.326D-04 0.142D-05-0.180D-02 0.403D-04-0.319D-02-0.405D-02
 Coeff-Com: -0.698D-03 0.647D-01 0.316D+00 0.629D+00
 Coeff:     -0.326D-04 0.142D-05-0.180D-02 0.403D-04-0.319D-02-0.405D-02
 Coeff:     -0.698D-03 0.647D-01 0.316D+00 0.629D+00
 Gap=     0.093 Goal=   None    Shift=    0.000
 RMSDP=1.07D-04 MaxDP=1.33D-02 DE=-1.80D-05 OVMax= 6.18D-04

 Cycle  11  Pass 1  IDiag  1:
 RMSU=  5.14D-05    CP:  1.13D+00  5.67D-01  5.21D-01 -2.86D-02  4.99D-01
                    CP:  1.20D+00  1.05D+00  1.07D+00  1.06D+00  1.08D+00
 E= -1947.09383064653     Delta-E=       -0.000003259256 Rises=F Damp=F
 DIIS: error= 2.33D-05 at cycle  11 NSaved=  11.
 NSaved=11 IEnMin=11 EnMin= -1947.09383064653     IErMin=11 ErrMin= 2.33D-05
 ErrMax= 2.33D-05  0.00D+00 EMaxC= 1.00D-01 BMatC= 6.64D-07 BMatP= 3.68D-06
 IDIUse=1 WtCom= 1.00D+00 WtEn= 0.00D+00
 Coeff-Com:  0.778D-04-0.399D-04 0.601D-04-0.538D-05-0.529D-03-0.329D-02
 Coeff-Com: -0.189D-01-0.101D-01 0.831D-01 0.355D+00 0.594D+00
 Coeff:      0.778D-04-0.399D-04 0.601D-04-0.538D-05-0.529D-03-0.329D-02
 Coeff:     -0.189D-01-0.101D-01 0.831D-01 0.355D+00 0.594D+00
 Gap=     0.093 Goal=   None    Shift=    0.000
 RMSDP=2.18D-05 MaxDP=3.03D-03 DE=-3.26D-06 OVMax= 4.30D-04

 Cycle  12  Pass 1  IDiag  1:
 RMSU=  1.72D-05    CP:  1.13D+00  5.67D-01  5.22D-01 -2.85D-02  4.99D-01
                    CP:  1.20D+00  1.06D+00  1.07D+00  1.08D+00  1.10D+00
                    CP:  1.01D+00
 E= -1947.09383127184     Delta-E=       -0.000000625312 Rises=F Damp=F
 DIIS: error= 9.18D-06 at cycle  12 NSaved=  12.
 NSaved=12 IEnMin=12 EnMin= -1947.09383127184     IErMin=12 ErrMin= 9.18D-06
 ErrMax= 9.18D-06  0.00D+00 EMaxC= 1.00D-01 BMatC= 5.74D-08 BMatP= 6.64D-07
 IDIUse=1 WtCom= 1.00D+00 WtEn= 0.00D+00
 Coeff-Com:  0.393D-04-0.148D-04 0.308D-03-0.855D-05 0.180D-03-0.109D-02
 Coeff-Com: -0.872D-02-0.117D-01-0.354D-02 0.883D-01 0.267D+00 0.669D+00
 Coeff:      0.393D-04-0.148D-04 0.308D-03-0.855D-05 0.180D-03-0.109D-02
 Coeff:     -0.872D-02-0.117D-01-0.354D-02 0.883D-01 0.267D+00 0.669D+00
 Gap=     0.093 Goal=   None    Shift=    0.000
 RMSDP=1.21D-05 MaxDP=2.05D-03 DE=-6.25D-07 OVMax= 1.02D-04

 Cycle  13  Pass 1  IDiag  1:
 RMSU=  6.39D-06    CP:  1.13D+00  5.67D-01  5.22D-01 -2.86D-02  4.99D-01
                    CP:  1.20D+00  1.05D+00  1.07D+00  1.09D+00  1.12D+00
                    CP:  1.07D+00  1.03D+00
 E= -1947.09383131880     Delta-E=       -0.000000046958 Rises=F Damp=F
 DIIS: error= 5.36D-06 at cycle  13 NSaved=  13.
 NSaved=13 IEnMin=13 EnMin= -1947.09383131880     IErMin=13 ErrMin= 5.36D-06
 ErrMax= 5.36D-06  0.00D+00 EMaxC= 1.00D-01 BMatC= 1.93D-08 BMatP= 5.74D-08
 IDIUse=1 WtCom= 1.00D+00 WtEn= 0.00D+00
 Coeff-Com:  0.749D-05-0.193D-04 0.169D-03-0.490D-05 0.203D-03-0.861D-04
 Coeff-Com: -0.210D-02-0.485D-02-0.151D-01 0.134D-02 0.678D-01 0.408D+00
 Coeff-Com:  0.545D+00
 Coeff:      0.749D-05-0.193D-04 0.169D-03-0.490D-05 0.203D-03-0.861D-04
 Coeff:     -0.210D-02-0.485D-02-0.151D-01 0.134D-02 0.678D-01 0.408D+00
 Coeff:      0.545D+00
 Gap=     0.093 Goal=   None    Shift=    0.000
 RMSDP=4.14D-06 MaxDP=4.94D-04 DE=-4.70D-08 OVMax= 8.06D-05

 Cycle  14  Pass 1  IDiag  1:
 RMSU=  2.01D-06    CP:  1.13D+00  5.67D-01  5.22D-01 -2.87D-02  4.99D-01
                    CP:  1.20D+00  1.05D+00  1.07D+00  1.09D+00  1.13D+00
                    CP:  1.10D+00  1.03D+00  9.75D-01
 E= -1947.09383133837     Delta-E=       -0.000000019572 Rises=F Damp=F
 DIIS: error= 1.93D-06 at cycle  14 NSaved=  14.
 NSaved=14 IEnMin=14 EnMin= -1947.09383133837     IErMin=14 ErrMin= 1.93D-06
 ErrMax= 1.93D-06  0.00D+00 EMaxC= 1.00D-01 BMatC= 2.49D-09 BMatP= 1.93D-08
 IDIUse=1 WtCom= 1.00D+00 WtEn= 0.00D+00
 Coeff-Com:  0.164D-05-0.806D-05 0.510D-04-0.111D-05 0.578D-04 0.725D-04
 Coeff-Com:  0.367D-03-0.221D-03-0.667D-02-0.136D-01-0.155D-01 0.800D-01
 Coeff-Com:  0.289D+00 0.666D+00
 Coeff:      0.164D-05-0.806D-05 0.510D-04-0.111D-05 0.578D-04 0.725D-04
 Coeff:      0.367D-03-0.221D-03-0.667D-02-0.136D-01-0.155D-01 0.800D-01
 Coeff:      0.289D+00 0.666D+00
 Gap=     0.093 Goal=   None    Shift=    0.000
 RMSDP=1.56D-06 MaxDP=1.38D-04 DE=-1.96D-08 OVMax= 1.70D-05

 Cycle  15  Pass 1  IDiag  1:
 RMSU=  8.08D-07    CP:  1.13D+00  5.67D-01  5.22D-01 -2.87D-02  4.99D-01
                    CP:  1.20D+00  1.05D+00  1.07D+00  1.09D+00  1.13D+00
                    CP:  1.09D+00  1.05D+00  9.96D-01  9.18D-01
 E= -1947.09383134005     Delta-E=       -0.000000001681 Rises=F Damp=F
 DIIS: error= 5.68D-07 at cycle  15 NSaved=  15.
 NSaved=15 IEnMin=15 EnMin= -1947.09383134005     IErMin=15 ErrMin= 5.68D-07
 ErrMax= 5.68D-07  0.00D+00 EMaxC= 1.00D-01 BMatC= 3.14D-10 BMatP= 2.49D-09
 IDIUse=1 WtCom= 1.00D+00 WtEn= 0.00D+00
 Coeff-Com:  0.718D-06-0.768D-06 0.146D-04-0.542D-06 0.122D-04 0.480D-04
 Coeff-Com:  0.335D-03 0.221D-03-0.222D-02-0.721D-02-0.140D-01 0.189D-02
 Coeff-Com:  0.101D+00 0.366D+00 0.554D+00
 Coeff:      0.718D-06-0.768D-06 0.146D-04-0.542D-06 0.122D-04 0.480D-04
 Coeff:      0.335D-03 0.221D-03-0.222D-02-0.721D-02-0.140D-01 0.189D-02
 Coeff:      0.101D+00 0.366D+00 0.554D+00
 Gap=     0.093 Goal=   None    Shift=    0.000
 RMSDP=4.92D-07 MaxDP=6.91D-05 DE=-1.68D-09 OVMax= 5.72D-06

 Cycle  16  Pass 1  IDiag  1:
 RMSU=  2.99D-07    CP:  1.13D+00  5.67D-01  5.22D-01 -2.87D-02  4.99D-01
                    CP:  1.20D+00  1.05D+00  1.07D+00  1.09D+00  1.12D+00
                    CP:  1.10D+00  1.05D+00  1.00D+00  9.71D-01  8.91D-01
 E= -1947.09383134020     Delta-E=       -0.000000000154 Rises=F Damp=F
 DIIS: error= 1.44D-07 at cycle  16 NSaved=  16.
 NSaved=16 IEnMin=16 EnMin= -1947.09383134020     IErMin=16 ErrMin= 1.44D-07
 ErrMax= 1.44D-07  0.00D+00 EMaxC= 1.00D-01 BMatC= 2.79D-11 BMatP= 3.14D-10
 IDIUse=1 WtCom= 1.00D+00 WtEn= 0.00D+00
 Coeff-Com:  0.146D-06-0.602D-07-0.113D-05-0.345D-07-0.283D-05 0.183D-04
 Coeff-Com:  0.129D-03 0.176D-03-0.634D-04-0.174D-02-0.462D-02-0.110D-01
 Coeff-Com:  0.819D-02 0.838D-01 0.266D+00 0.659D+00
 Coeff:      0.146D-06-0.602D-07-0.113D-05-0.345D-07-0.283D-05 0.183D-04
 Coeff:      0.129D-03 0.176D-03-0.634D-04-0.174D-02-0.462D-02-0.110D-01
 Coeff:      0.819D-02 0.838D-01 0.266D+00 0.659D+00
 Gap=     0.093 Goal=   None    Shift=    0.000
 RMSDP=1.94D-07 MaxDP=2.28D-05 DE=-1.54D-10 OVMax= 1.49D-06

 Cycle  17  Pass 1  IDiag  1:
 RMSU=  1.09D-07    CP:  1.13D+00  5.67D-01  5.22D-01 -2.87D-02  4.99D-01
                    CP:  1.20D+00  1.05D+00  1.07D+00  1.09D+00  1.12D+00
                    CP:  1.10D+00  1.05D+00  1.01D+00  9.96D-01  9.20D-01
                    CP:  9.07D-01
 E= -1947.09383134064     Delta-E=       -0.000000000433 Rises=F Damp=F
 DIIS: error= 5.64D-08 at cycle  17 NSaved=  17.
 NSaved=17 IEnMin=17 EnMin= -1947.09383134064     IErMin=17 ErrMin= 5.64D-08
 ErrMax= 5.64D-08  0.00D+00 EMaxC= 1.00D-01 BMatC= 3.06D-12 BMatP= 2.79D-11
 IDIUse=1 WtCom= 1.00D+00 WtEn= 0.00D+00
 Coeff-Com: -0.317D-07 0.161D-08-0.213D-05 0.307D-07-0.219D-05 0.614D-05
 Coeff-Com:  0.317D-04 0.599D-04 0.154D-03-0.222D-03-0.867D-03-0.538D-02
 Coeff-Com: -0.475D-02 0.841D-02 0.822D-01 0.322D+00 0.599D+00
 Coeff:     -0.317D-07 0.161D-08-0.213D-05 0.307D-07-0.219D-05 0.614D-05
 Coeff:      0.317D-04 0.599D-04 0.154D-03-0.222D-03-0.867D-03-0.538D-02
 Coeff:     -0.475D-02 0.841D-02 0.822D-01 0.322D+00 0.599D+00
 Gap=     0.093 Goal=   None    Shift=    0.000
 RMSDP=6.68D-08 MaxDP=1.37D-05 DE=-4.33D-10 OVMax= 6.80D-07

 Cycle  18  Pass 1  IDiag  1:
 RMSU=  3.41D-08    CP:  1.13D+00  5.67D-01  5.22D-01 -2.87D-02  4.99D-01
                    CP:  1.20D+00  1.05D+00  1.07D+00  1.09D+00  1.12D+00
                    CP:  1.10D+00  1.05D+00  1.01D+00  9.97D-01  9.18D-01
                    CP:  9.27D-01  9.62D-01
 E= -1947.09383134109     Delta-E=       -0.000000000452 Rises=F Damp=F
 DIIS: error= 2.59D-08 at cycle  18 NSaved=  18.
 NSaved=18 IEnMin=18 EnMin= -1947.09383134109     IErMin=18 ErrMin= 2.59D-08
 ErrMax= 2.59D-08  0.00D+00 EMaxC= 1.00D-01 BMatC= 3.83D-13 BMatP= 3.06D-12
 IDIUse=1 WtCom= 1.00D+00 WtEn= 0.00D+00
 Coeff-Com: -0.440D-07 0.172D-07-0.934D-06 0.246D-07-0.764D-06 0.608D-06
 Coeff-Com:  0.623D-06 0.104D-04 0.793D-04 0.799D-04 0.108D-03-0.124D-02
 Coeff-Com: -0.300D-02-0.549D-02 0.799D-02 0.708D-01 0.299D+00 0.632D+00
 Coeff:     -0.440D-07 0.172D-07-0.934D-06 0.246D-07-0.764D-06 0.608D-06
 Coeff:      0.623D-06 0.104D-04 0.793D-04 0.799D-04 0.108D-03-0.124D-02
 Coeff:     -0.300D-02-0.549D-02 0.799D-02 0.708D-01 0.299D+00 0.632D+00
 Gap=     0.093 Goal=   None    Shift=    0.000
 RMSDP=3.40D-08 MaxDP=5.19D-06 DE=-4.52D-10 OVMax= 2.47D-07

 Cycle  19  Pass 1  IDiag  1:
 RMSU=  2.38D-08    CP:  1.13D+00  5.67D-01  5.22D-01 -2.87D-02  4.99D-01
                    CP:  1.20D+00  1.05D+00  1.07D+00  1.09D+00  1.12D+00
                    CP:  1.10D+00  1.05D+00  1.01D+00  9.96D-01  9.20D-01
                    CP:  9.38D-01  9.41D-01  1.19D+00
 E= -1947.09383134059     Delta-E=        0.000000000495 Rises=F Damp=F
 DIIS: error= 8.94D-09 at cycle  19 NSaved=  19.
 NSaved=19 IEnMin=18 EnMin= -1947.09383134109     IErMin=19 ErrMin= 8.94D-09
 ErrMax= 8.94D-09  0.00D+00 EMaxC= 1.00D-01 BMatC= 5.44D-14 BMatP= 3.83D-13
 IDIUse=1 WtCom= 1.00D+00 WtEn= 0.00D+00
 Coeff-Com: -0.264D-07 0.446D-07-0.233D-06 0.666D-08-0.123D-06-0.500D-06
 Coeff-Com: -0.349D-05-0.186D-05 0.196D-04 0.656D-04 0.158D-03 0.602D-04
 Coeff-Com: -0.973D-03-0.397D-02-0.697D-02-0.736D-02 0.771D-01 0.324D+00
 Coeff-Com:  0.618D+00
 Coeff:     -0.264D-07 0.446D-07-0.233D-06 0.666D-08-0.123D-06-0.500D-06
 Coeff:     -0.349D-05-0.186D-05 0.196D-04 0.656D-04 0.158D-03 0.602D-04
 Coeff:     -0.973D-03-0.397D-02-0.697D-02-0.736D-02 0.771D-01 0.324D+00
 Coeff:      0.618D+00
 Gap=     0.093 Goal=   None    Shift=    0.000
 RMSDP=3.21D-08 MaxDP=3.20D-06 DE= 4.95D-10 OVMax= 8.79D-08

 Cycle  20  Pass 1  IDiag  1:
 RMSU=  1.51D-08    CP:  1.13D+00  5.67D-01  5.22D-01 -2.87D-02  4.99D-01
                    CP:  1.20D+00  1.05D+00  1.07D+00  1.09D+00  1.12D+00
                    CP:  1.10D+00  1.05D+00  1.01D+00  9.96D-01  9.14D-01
                    CP:  9.60D-01  9.31D-01  1.54D+00  1.65D+00
 E= -1947.09383134119     Delta-E=       -0.000000000595 Rises=F Damp=F
 DIIS: error= 3.75D-09 at cycle  20 NSaved=  20.
 NSaved=20 IEnMin=20 EnMin= -1947.09383134119     IErMin=20 ErrMin= 3.75D-09
 ErrMax= 3.75D-09  0.00D+00 EMaxC= 1.00D-01 BMatC= 8.84D-15 BMatP= 5.44D-14
 IDIUse=1 WtCom= 1.00D+00 WtEn= 0.00D+00
 Coeff-Com: -0.119D-07 0.229D-07-0.273D-07-0.301D-10 0.254D-07-0.320D-06
 Coeff-Com: -0.169D-05-0.226D-05-0.802D-06 0.209D-04 0.645D-04 0.187D-03
 Coeff-Com: -0.107D-03-0.126D-02-0.434D-02-0.123D-01 0.288D-02 0.885D-01
 Coeff-Com:  0.331D+00 0.595D+00
 Coeff:     -0.119D-07 0.229D-07-0.273D-07-0.301D-10 0.254D-07-0.320D-06
 Coeff:     -0.169D-05-0.226D-05-0.802D-06 0.209D-04 0.645D-04 0.187D-03
 Coeff:     -0.107D-03-0.126D-02-0.434D-02-0.123D-01 0.288D-02 0.885D-01
 Coeff:      0.331D+00 0.595D+00
 Gap=     0.093 Goal=   None    Shift=    0.000
 RMSDP=3.27D-08 MaxDP=3.42D-06 DE=-5.95D-10 OVMax= 4.87D-08

 Cycle  21  Pass 1  IDiag  1:
 Restarting incremental Fock formation.
 E= -1947.09383134130     Delta-E=       -0.000000000106 Rises=F Damp=F
 DIIS: error= 4.63D-08 at cycle  21 NSaved=  20.
 NSaved=20 IEnMin=20 EnMin= -1947.09383134130     IErMin=19 ErrMin= 3.75D-09
 ErrMax= 4.63D-08  0.00D+00 EMaxC= 1.00D-01 BMatC= 4.26D-13 BMatP= 8.84D-15
 IDIUse=1 WtCom= 1.00D+00 WtEn= 0.00D+00
 Coeff-Com: -0.118D-07 0.228D-07-0.271D-07 0.255D-07-0.319D-06-0.169D-05
 Coeff-Com: -0.225D-05-0.812D-06 0.208D-04 0.642D-04 0.186D-03-0.106D-03
 Coeff-Com: -0.125D-02-0.433D-02-0.123D-01 0.281D-02 0.880D-01 0.330D+00
 Coeff-Com:  0.593D+00 0.353D-02
 Coeff:     -0.118D-07 0.228D-07-0.271D-07 0.255D-07-0.319D-06-0.169D-05
 Coeff:     -0.225D-05-0.812D-06 0.208D-04 0.642D-04 0.186D-03-0.106D-03
 Coeff:     -0.125D-02-0.433D-02-0.123D-01 0.281D-02 0.880D-01 0.330D+00
 Coeff:      0.593D+00 0.353D-02
 Gap=     0.093 Goal=   None    Shift=    0.000
 RMSDP=7.98D-09 MaxDP=6.64D-07 DE=-1.06D-10 OVMax= 7.08D-10

 SCF Done:  E(RM06) =  -1947.09383134     A.U. after   21 cycles
            NFock= 21  Conv=0.80D-08     -V/T= 1.9985
 KE= 1.949995470039D+03 PE=-1.212632534132D+04 EE= 4.452351725326D+03
 Leave Link  502 at Fri Jan 15 04:27:45 2021, MaxMem=  5368709120 cpu:     10998.2
 (Enter /usr/local/bin/G09/G09d//g09/l801.exe)
 DoSCS=F DFT=T ScalE2(SS,OS)=  1.000000  1.000000
 Range of M.O.s used for correlation:     1   827
 NBasis=   837 NAE=   128 NBE=   128 NFC=     0 NFV=     0
 NROrb=    827 NOA=   128 NOB=   128 NVA=   699 NVB=   699

 **** Warning!!: The largest alpha MO coefficient is  0.14602387D+03


 **** Warning!!: The smallest alpha delta epsilon is  0.92977107D-01

 Leave Link  801 at Fri Jan 15 04:27:46 2021, MaxMem=  5368709120 cpu:         0.5
 (Enter /usr/local/bin/G09/G09d//g09/l1002.exe)
 Minotr:  Closed shell wavefunction.
          Direct CPHF calculation.
          Differentiating once with respect to electric field.
                with respect to dipole field.
          Electric field/nuclear overlap derivatives assumed to be zero.
          Requested convergence is 1.0D-08 RMS, and 1.0D-07 maximum.
          NewPWx=F KeepS1=T KeepF1=T KeepIn=T MapXYZ=F SortEE=F KeepMc=T.
          MDV=    5368707801 using IRadAn=       1.
 Generate precomputed XC quadrature information.
          Solving linear equations separately, MaxMat=      72.
          Doing perturbations at frequencies    0.000000    0.072000    0.144000
          There are     9 degrees of freedom in the 1st order CPHF.  IDoFFX=0 NUNeed=     9.
 LinEq1:  Iter=  0 NonCon=     9 RMS=5.92D-01 Max=1.85D+02 NDo=     9
 AX will form     9 AO Fock derivatives at one time.
 FoFJK:  IHMeth= 1 ICntrl=       0 DoSepK=F KAlg= 0 I1Cent=   0 FoldK=F
 IRaf= 800000000 NMat=  18 IRICut=       1 DoRegI=T DoRafI=F ISym2E= 0.
 FoFCou: FMM=T IPFlag=           0 FMFlag=      100000 FMFlg1=        2001
         NFxFlg=           0 DoJE=F BraDBF=F KetDBF=F FulRan=T
         wScrn=  0.000000 ICntrl=       0 IOpCl=  0 I1Cent=           0 NGrid=           0
         NMat0=   18 NMatS0=      9 NMatT0=    0 NMatD0=   18 NMtDS0=    0 NMtDT0=    0
 Symmetry not used in FoFCou.
 FMM levels:  10  Number of levels for PrismC:   9
 LinEq1:  Iter=  1 NonCon=     9 RMS=2.52D+01 Max=8.29D+03 NDo=     9
 LinEq1:  Iter=  2 NonCon=     9 RMS=4.61D+02 Max=1.49D+05 NDo=     9
 LinEq1:  Iter=  3 NonCon=     9 RMS=6.42D+03 Max=1.60D+06 NDo=     9
 LinEq1:  Iter=  4 NonCon=     9 RMS=3.04D+04 Max=1.03D+07 NDo=     9
 LinEq1:  Iter=  5 NonCon=     9 RMS=4.42D+04 Max=1.43D+07 NDo=     9
 LinEq1:  Iter=  6 NonCon=     9 RMS=1.21D+05 Max=3.20D+07 NDo=     9
 LinEq1:  Iter=  7 NonCon=     9 RMS=3.48D+05 Max=1.33D+08 NDo=     9
 LinEq1:  Iter=  8 NonCon=     9 RMS=9.82D+05 Max=2.27D+08 NDo=     9
 LinEq1:  Iter=  9 NonCon=     9 RMS=1.20D+06 Max=3.05D+08 NDo=     9
 LinEq1:  Iter= 10 NonCon=     9 RMS=2.79D+06 Max=5.58D+08 NDo=     9
 LinEq1:  Iter= 11 NonCon=     9 RMS=2.00D+06 Max=3.11D+08 NDo=     9
 LinEq1:  Iter= 12 NonCon=     9 RMS=2.90D+06 Max=4.78D+08 NDo=     9
 LinEq1:  Iter= 13 NonCon=     9 RMS=4.15D+06 Max=1.18D+09 NDo=     9
 LinEq1:  Iter= 14 NonCon=     9 RMS=7.40D+06 Max=1.58D+09 NDo=     9
 LinEq1:  Iter= 15 NonCon=     9 RMS=8.08D+06 Max=1.87D+09 NDo=     9
 LinEq1:  Iter= 16 NonCon=     9 RMS=1.21D+07 Max=2.07D+09 NDo=     9
 LinEq1:  Iter= 17 NonCon=     9 RMS=1.44D+07 Max=3.15D+09 NDo=     9
 LinEq1:  Iter= 18 NonCon=     9 RMS=1.99D+07 Max=4.41D+09 NDo=     9
 LinEq1:  Iter= 19 NonCon=     9 RMS=2.23D+07 Max=3.50D+09 NDo=     9
 LinEq1:  Iter= 20 NonCon=     9 RMS=2.33D+07 Max=4.57D+09 NDo=     9
 LinEq1:  Iter= 21 NonCon=     9 RMS=2.36D+07 Max=3.45D+09 NDo=     9
 LinEq1:  Iter= 22 NonCon=     9 RMS=2.71D+07 Max=6.03D+09 NDo=     9
 LinEq1:  Iter= 23 NonCon=     9 RMS=2.31D+07 Max=4.38D+09 NDo=     9
 LinEq1:  Iter= 24 NonCon=     9 RMS=2.65D+07 Max=3.95D+09 NDo=     9
 LinEq1:  Iter= 25 NonCon=     9 RMS=1.91D+07 Max=3.38D+09 NDo=     9
 LinEq1:  Iter= 26 NonCon=     9 RMS=1.91D+07 Max=2.96D+09 NDo=     9
 LinEq1:  Iter= 27 NonCon=     9 RMS=1.61D+07 Max=2.31D+09 NDo=     9
 LinEq1:  Iter= 28 NonCon=     9 RMS=1.44D+07 Max=1.60D+09 NDo=     9
 LinEq1:  Iter= 29 NonCon=     9 RMS=1.29D+07 Max=2.13D+09 NDo=     9
 LinEq1:  Iter= 30 NonCon=     9 RMS=1.01D+07 Max=1.69D+09 NDo=     9
 LinEq1:  Iter= 31 NonCon=     9 RMS=8.74D+06 Max=1.50D+09 NDo=     9
 LinEq1:  Iter= 32 NonCon=     9 RMS=6.06D+06 Max=7.41D+08 NDo=     9
 LinEq1:  Iter= 33 NonCon=     7 RMS=4.56D+06 Max=5.19D+08 NDo=     9
 LinEq1:  Iter= 34 NonCon=     6 RMS=3.58D+06 Max=4.09D+08 NDo=     7
 LinEq1:  Iter= 35 NonCon=     6 RMS=2.82D+06 Max=3.29D+08 NDo=     6
 LinEq1:  Iter= 36 NonCon=     6 RMS=2.22D+06 Max=2.75D+08 NDo=     6
 LinEq1:  Iter= 37 NonCon=     6 RMS=1.49D+06 Max=1.92D+08 NDo=     6
 LinEq1:  Iter= 38 NonCon=     6 RMS=1.09D+06 Max=1.78D+08 NDo=     6
 LinEq1:  Iter= 39 NonCon=     6 RMS=9.26D+05 Max=1.38D+08 NDo=     6
 LinEq1:  Iter= 40 NonCon=     6 RMS=7.33D+05 Max=1.05D+08 NDo=     6
 LinEq1:  Iter= 41 NonCon=     6 RMS=5.39D+05 Max=6.16D+07 NDo=     6
 LinEq1:  Iter= 42 NonCon=     6 RMS=4.37D+05 Max=3.53D+07 NDo=     6
 LinEq1:  Iter= 43 NonCon=     6 RMS=3.56D+05 Max=3.88D+07 NDo=     6
 LinEq1:  Iter= 44 NonCon=     5 RMS=2.48D+05 Max=2.66D+07 NDo=     6
 LinEq1:  Iter= 45 NonCon=     3 RMS=1.86D+05 Max=2.00D+07 NDo=     5
 LinEq1:  Iter= 46 NonCon=     3 RMS=1.28D+05 Max=1.38D+07 NDo=     3
 LinEq1:  Iter= 47 NonCon=     3 RMS=8.19D+04 Max=8.41D+06 NDo=     3
 LinEq1:  Iter= 48 NonCon=     3 RMS=4.98D+04 Max=6.71D+06 NDo=     3
 LinEq1:  Iter= 49 NonCon=     3 RMS=3.42D+04 Max=5.07D+06 NDo=     3
 LinEq1:  Iter= 50 NonCon=     3 RMS=2.52D+04 Max=4.21D+06 NDo=     3
 LinEq1:  Iter= 51 NonCon=     3 RMS=1.69D+04 Max=2.54D+06 NDo=     3
 LinEq1:  Iter= 52 NonCon=     3 RMS=1.26D+04 Max=1.74D+06 NDo=     3
 LinEq1:  Iter= 53 NonCon=     3 RMS=7.73D+03 Max=1.06D+06 NDo=     3
 LinEq1:  Iter= 54 NonCon=     3 RMS=4.89D+03 Max=7.97D+05 NDo=     3
 LinEq1:  Iter= 55 NonCon=     3 RMS=3.10D+03 Max=4.42D+05 NDo=     3
 LinEq1:  Iter= 56 NonCon=     3 RMS=1.97D+03 Max=2.24D+05 NDo=     3
 LinEq1:  Iter= 57 NonCon=     3 RMS=1.16D+03 Max=1.32D+05 NDo=     3
 LinEq1:  Iter= 58 NonCon=     3 RMS=7.84D+02 Max=1.15D+05 NDo=     3
 LinEq1:  Iter= 59 NonCon=     3 RMS=5.40D+02 Max=6.37D+04 NDo=     3
 LinEq1:  Iter= 60 NonCon=     3 RMS=3.22D+02 Max=3.32D+04 NDo=     3
 LinEq1:  Iter= 61 NonCon=     3 RMS=1.86D+02 Max=1.65D+04 NDo=     3
 LinEq1:  Iter= 62 NonCon=     3 RMS=1.24D+02 Max=9.53D+03 NDo=     3
 LinEq1:  Iter= 63 NonCon=     3 RMS=7.51D+01 Max=7.29D+03 NDo=     3
 LinEq1:  Iter= 64 NonCon=     3 RMS=3.66D+01 Max=3.89D+03 NDo=     3
 LinEq1:  Iter= 65 NonCon=     3 RMS=1.69D+01 Max=2.26D+03 NDo=     3
 LinEq1:  Iter= 66 NonCon=     3 RMS=1.04D+01 Max=1.46D+03 NDo=     3
 LinEq1:  Iter= 67 NonCon=     3 RMS=7.17D+00 Max=1.06D+03 NDo=     3
 LinEq1:  Iter= 68 NonCon=     3 RMS=3.50D+00 Max=5.30D+02 NDo=     3
 LinEq1:  Iter= 69 NonCon=     3 RMS=2.04D+00 Max=2.45D+02 NDo=     3
 LinEq1:  Iter= 70 NonCon=     3 RMS=1.13D+00 Max=1.13D+02 NDo=     3
 LinEq1:  Iter= 71 NonCon=     3 RMS=7.71D-01 Max=5.98D+01 NDo=     3
 LinEq1:  Iter= 72 NonCon=     3 RMS=4.25D-01 Max=4.54D+01 NDo=     3
 LinEq1:  Iter= 73 NonCon=     3 RMS=2.24D-01 Max=2.48D+01 NDo=     3
 LinEq1:  Iter= 74 NonCon=     3 RMS=1.19D-01 Max=1.14D+01 NDo=     3
 LinEq1:  Iter= 75 NonCon=     3 RMS=5.63D-02 Max=5.29D+00 NDo=     3
 LinEq1:  Iter= 76 NonCon=     3 RMS=3.65D-02 Max=3.59D+00 NDo=     3
 LinEq1:  Iter= 77 NonCon=     3 RMS=1.73D-02 Max=1.83D+00 NDo=     3
 LinEq1:  Iter= 78 NonCon=     3 RMS=7.97D-03 Max=8.50D-01 NDo=     3
 LinEq1:  Iter= 79 NonCon=     3 RMS=4.42D-03 Max=4.28D-01 NDo=     3
 LinEq1:  Iter= 80 NonCon=     3 RMS=2.65D-03 Max=2.97D-01 NDo=     3
 LinEq1:  Iter= 81 NonCon=     3 RMS=1.42D-03 Max=1.60D-01 NDo=     3
 LinEq1:  Iter= 82 NonCon=     3 RMS=5.85D-04 Max=6.03D-02 NDo=     3
 LinEq1:  Iter= 83 NonCon=     3 RMS=2.36D-04 Max=1.98D-02 NDo=     3
 LinEq1:  Iter= 84 NonCon=     3 RMS=1.44D-04 Max=1.29D-02 NDo=     3
 LinEq1:  Iter= 85 NonCon=     3 RMS=7.54D-05 Max=8.59D-03 NDo=     3
 LinEq1:  Iter= 86 NonCon=     3 RMS=3.57D-05 Max=5.06D-03 NDo=     3
 LinEq1:  Iter= 87 NonCon=     3 RMS=1.54D-05 Max=2.38D-03 NDo=     3
 LinEq1:  Iter= 88 NonCon=     3 RMS=7.38D-06 Max=8.95D-04 NDo=     3
 LinEq1:  Iter= 89 NonCon=     3 RMS=4.33D-06 Max=5.62D-04 NDo=     3
 LinEq1:  Iter= 90 NonCon=     3 RMS=2.35D-06 Max=3.12D-04 NDo=     3
 LinEq1:  Iter= 91 NonCon=     3 RMS=8.92D-07 Max=7.32D-05 NDo=     3
 LinEq1:  Iter= 92 NonCon=     3 RMS=4.97D-07 Max=3.71D-05 NDo=     3
 LinEq1:  Iter= 93 NonCon=     3 RMS=2.86D-07 Max=2.29D-05 NDo=     3
 LinEq1:  Iter= 94 NonCon=     3 RMS=1.20D-07 Max=1.49D-05 NDo=     3
 LinEq1:  Iter= 95 NonCon=     3 RMS=5.45D-08 Max=7.19D-06 NDo=     3
 LinEq1:  Iter= 96 NonCon=     3 RMS=2.36D-08 Max=2.40D-06 NDo=     3
 LinEq1:  Iter= 97 NonCon=     3 RMS=1.37D-08 Max=9.56D-07 NDo=     3
 LinEq1:  Iter= 98 NonCon=     3 RMS=1.22D-08 Max=7.17D-07 NDo=     3
 LinEq1:  Iter= 99 NonCon=     3 RMS=6.99D-09 Max=4.58D-07 NDo=     3
 LinEq1:  Iter=100 NonCon=     3 RMS=3.84D-09 Max=2.27D-07 NDo=     3
 LinEq1:  Iter=101 NonCon=     2 RMS=2.50D-09 Max=1.74D-07 NDo=     3
 LinEq1:  Iter=102 NonCon=     2 RMS=1.53D-09 Max=1.17D-07 NDo=     2
 LinEq1:  Iter=103 NonCon=     0 RMS=1.16D-09 Max=7.13D-08 NDo=     2
 Linear equations converged to 1.000D-08 1.000D-07 after   103 iterations.
 FullF1:  Do perturbations    1 to     9.
 SCF Polarizability for W=    0.000000:
                1             2             3 
      1  0.414843D+03
      2  0.127762D+03  0.355612D+03
      3 -0.102879D+03 -0.141438D+03  0.391169D+03
 Isotropic polarizability for W=    0.000000      387.21 Bohr**3.
 SCF Polarizability for W=    0.072000:
                1             2             3 
      1  0.494493D+03
      2  0.199869D+03  0.431948D+03
      3 -0.187415D+03 -0.218861D+03  0.481463D+03
 Isotropic polarizability for W=    0.072000      469.30 Bohr**3.
 SCF Polarizability for W=    0.144000:
                1             2             3 
      1  0.364131D+03
      2  0.389564D+02  0.365692D+03
      3  0.832233D+01 -0.495530D+02  0.324600D+03
 Isotropic polarizability for W=    0.144000      351.47 Bohr**3.
 SCF Static Hyperpolarizability:
 K=  1 block:
                1 
      1 -0.286803D+04
 K=  2 block:
                1             2 
      1 -0.242630D+04
      2 -0.216201D+04 -0.197732D+04
 K=  3 block:
                1             2             3 
      1  0.247321D+04
      2  0.239183D+04  0.211093D+04
      3 -0.286278D+04 -0.230272D+04  0.236952D+04
 SCF Beta(-W,W;0) for W=    0.072000:
 K=  1 block:
                1             2             3 
      1 -0.256237D+05
      2 -0.113727D+05 -0.901587D+04
      3  0.236181D+04  0.894662D+04 -0.159177D+05
 K=  2 block:
                1             2             3 
      1 -0.142264D+05
      2 -0.962323D+04 -0.842496D+04
      3  0.791248D+04  0.894634D+04 -0.114088D+05
 K=  3 block:
                1             2             3 
      1  0.792937D+04
      2  0.987510D+04  0.912457D+04
      3 -0.135363D+05 -0.104062D+05  0.101558D+05
 SCF Beta(W,W;-2W) for W=    0.072000:
 K=  1 block:
                1             2             3 
      1  0.504509D+04
      2  0.623569D+04  0.531178D+04
      3 -0.786621D+04 -0.557909D+04  0.524888D+04
 K=  2 block:
                1             2             3 
      1  0.806547D+04
      2  0.730139D+04  0.648009D+04
      3 -0.718287D+04 -0.648987D+04  0.670311D+04
 K=  3 block:
                1             2             3 
      1 -0.858523D+04
      2 -0.824771D+04 -0.741101D+04
      3  0.878350D+04  0.797459D+04 -0.883625D+04
 SCF Beta(-W,W;0) for W=    0.144000:
 K=  1 block:
                1             2             3 
      1 -0.293085D+05
      2 -0.374900D+05  0.440939D+05
      3  0.243613D+05  0.411150D+05 -0.339901D+05
 K=  2 block:
                1             2             3 
      1 -0.219472D+05
      2 -0.300366D+05  0.405416D+05
      3  0.202121D+05  0.311216D+05 -0.241692D+05
 K=  3 block:
                1             2             3 
      1  0.183880D+05
      2  0.320444D+05 -0.531511D+05
      3 -0.196225D+05 -0.310649D+05  0.202036D+05
 End of Minotr F.D. properties on file   721 Mask=      31 NFrqRd=     2 NDeriv=     1 ND12= 1 LenFil=      94:
 Frequencies=    0.000000    0.072000
 Property number 1 -- Alpha(-w,w) frequency  1    0.000000:
                 1             2             3 
      1   0.414843D+03  0.127762D+03 -0.102879D+03
      2   0.127762D+03  0.355612D+03 -0.141438D+03
      3  -0.102879D+03 -0.141438D+03  0.391169D+03
 Property number 1 -- Alpha(-w,w) frequency  2    0.072000:
                 1             2             3 
      1   0.494493D+03  0.199869D+03 -0.187415D+03
      2   0.199869D+03  0.431948D+03 -0.218861D+03
      3  -0.187415D+03 -0.218861D+03  0.481463D+03
 Property number 5 -- Beta(-w,w,0) frequency  1    0.000000:
                 1 
      1  -0.286803D+04
      2  -0.242630D+04
      3  -0.216201D+04
      4   0.247321D+04
      5   0.239183D+04
      6  -0.286278D+04
      7  -0.242630D+04
      8  -0.216201D+04
      9  -0.197732D+04
     10   0.239183D+04
     11   0.211093D+04
     12  -0.230272D+04
     13   0.247321D+04
     14   0.239183D+04
     15   0.211093D+04
     16  -0.286278D+04
     17  -0.230272D+04
     18   0.236952D+04
 Property number 5 -- Beta(-w,w,0) frequency  2    0.072000:
                 1 
      1  -0.256237D+05
      2  -0.113727D+05
      3  -0.901587D+04
      4   0.236181D+04
      5   0.894662D+04
      6  -0.159177D+05
      7  -0.142264D+05
      8  -0.962323D+04
      9  -0.842496D+04
     10   0.791248D+04
     11   0.894634D+04
     12  -0.114088D+05
     13   0.792937D+04
     14   0.987510D+04
     15   0.912457D+04
     16  -0.135363D+05
     17  -0.104062D+05
     18   0.101558D+05
 Property number 6 -- Beta(w,w,-2w) frequency  1    0.000000:
                 1 
      1  -0.286803D+04
      2  -0.242630D+04
      3  -0.216201D+04
      4   0.247321D+04
      5   0.239183D+04
      6  -0.286278D+04
      7  -0.242630D+04
      8  -0.216201D+04
      9  -0.197732D+04
     10   0.239183D+04
     11   0.211093D+04
     12  -0.230272D+04
     13   0.247321D+04
     14   0.239183D+04
     15   0.211093D+04
     16  -0.286278D+04
     17  -0.230272D+04
     18   0.236952D+04
 Property number 6 -- Beta(w,w,-2w) frequency  2    0.072000:
                 1 
      1   0.504509D+04
      2   0.623569D+04
      3   0.531178D+04
      4  -0.786621D+04
      5  -0.557909D+04
      6   0.524888D+04
      7   0.806547D+04
      8   0.730139D+04
      9   0.648009D+04
     10  -0.718287D+04
     11  -0.648987D+04
     12   0.670311D+04
     13  -0.858523D+04
     14  -0.824771D+04
     15  -0.741101D+04
     16   0.878350D+04
     17   0.797459D+04
     18  -0.883625D+04
 End of Minotr F.D. properties file   722 does not exist.
 End of Minotr F.D. properties file   788 does not exist.
 Leave Link 1002 at Fri Jan 15 16:20:51 2021, MaxMem=  5368709120 cpu:    342397.4
 (Enter /usr/local/bin/G09/G09d//g09/l601.exe)
 Copying SCF densities to generalized density rwf, IOpCl= 0 IROHF=0.

 **********************************************************************

            Population analysis using the SCF density.

 **********************************************************************

 Alpha  occ. eigenvalues --  -89.16354 -19.24933 -19.23845 -19.23600 -19.21656
 Alpha  occ. eigenvalues --  -19.10915 -19.10822 -19.10095 -14.51736 -10.35490
 Alpha  occ. eigenvalues --  -10.33076 -10.30506 -10.30117 -10.29486 -10.28262
 Alpha  occ. eigenvalues --  -10.28100 -10.26517 -10.25504 -10.25295 -10.24676
 Alpha  occ. eigenvalues --  -10.23869 -10.23142 -10.22980 -10.22903 -10.22251
 Alpha  occ. eigenvalues --  -10.22152 -10.22149 -10.20916 -10.20905 -10.20719
 Alpha  occ. eigenvalues --  -10.20645 -10.20303 -10.20235 -10.20061  -8.15905
 Alpha  occ. eigenvalues --   -6.07460  -6.07420  -6.07378  -1.19299  -1.14839
 Alpha  occ. eigenvalues --   -1.10998  -1.09512  -1.08976  -1.07440  -0.95123
 Alpha  occ. eigenvalues --   -0.94515  -0.91094  -0.89706  -0.88239  -0.87999
 Alpha  occ. eigenvalues --   -0.83303  -0.83194  -0.80044  -0.78669  -0.78516
 Alpha  occ. eigenvalues --   -0.78180  -0.75340  -0.74858  -0.73743  -0.73696
 Alpha  occ. eigenvalues --   -0.70943  -0.69927  -0.67408  -0.66484  -0.65289
 Alpha  occ. eigenvalues --   -0.65111  -0.63231  -0.62700  -0.62356  -0.61839
 Alpha  occ. eigenvalues --   -0.59838  -0.57651  -0.57412  -0.57035  -0.55665
 Alpha  occ. eigenvalues --   -0.54681  -0.54307  -0.54225  -0.53479  -0.52336
 Alpha  occ. eigenvalues --   -0.51600  -0.50152  -0.49650  -0.48885  -0.48732
 Alpha  occ. eigenvalues --   -0.48332  -0.47603  -0.47282  -0.47110  -0.46255
 Alpha  occ. eigenvalues --   -0.45702  -0.45472  -0.45437  -0.44996  -0.44297
 Alpha  occ. eigenvalues --   -0.43774  -0.43539  -0.43257  -0.42108  -0.41806
 Alpha  occ. eigenvalues --   -0.41568  -0.40661  -0.40617  -0.39953  -0.39117
 Alpha  occ. eigenvalues --   -0.38972  -0.38811  -0.38547  -0.37393  -0.36665
 Alpha  occ. eigenvalues --   -0.36435  -0.35475  -0.35214  -0.34888  -0.34079
 Alpha  occ. eigenvalues --   -0.33300  -0.29873  -0.29679  -0.29105  -0.28664
 Alpha  occ. eigenvalues --   -0.26349  -0.25964  -0.25385  -0.25241  -0.23153
 Alpha  occ. eigenvalues --   -0.22333  -0.21205  -0.20310
 Alpha virt. eigenvalues --   -0.11012  -0.08671  -0.06074  -0.05292  -0.03693
 Alpha virt. eigenvalues --   -0.02667  -0.02517  -0.02241  -0.02028  -0.01605
 Alpha virt. eigenvalues --   -0.01080  -0.00935  -0.00814  -0.00479  -0.00084
 Alpha virt. eigenvalues --    0.00060   0.00166   0.00990   0.01581   0.01743
 Alpha virt. eigenvalues --    0.01916   0.02065   0.02109   0.02680   0.03055
 Alpha virt. eigenvalues --    0.03365   0.03969   0.04199   0.04291   0.04669
 Alpha virt. eigenvalues --    0.04791   0.05153   0.05321   0.05398   0.05980
 Alpha virt. eigenvalues --    0.06031   0.06378   0.06722   0.07111   0.07315
 Alpha virt. eigenvalues --    0.07599   0.07843   0.07913   0.08375   0.08665
 Alpha virt. eigenvalues --    0.08830   0.09396   0.09496   0.09986   0.10127
 Alpha virt. eigenvalues --    0.10372   0.10564   0.10940   0.11037   0.11265
 Alpha virt. eigenvalues --    0.11519   0.11707   0.11997   0.12364   0.12615
 Alpha virt. eigenvalues --    0.12840   0.13259   0.13504   0.13713   0.13804
 Alpha virt. eigenvalues --    0.13998   0.14167   0.14332   0.14881   0.15164
 Alpha virt. eigenvalues --    0.15419   0.15587   0.15740   0.15968   0.16287
 Alpha virt. eigenvalues --    0.16363   0.16706   0.16753   0.17043   0.17257
 Alpha virt. eigenvalues --    0.17422   0.17562   0.17724   0.17750   0.17803
 Alpha virt. eigenvalues --    0.18273   0.18362   0.18622   0.18678   0.19003
 Alpha virt. eigenvalues --    0.19336   0.19438   0.19693   0.19921   0.20067
 Alpha virt. eigenvalues --    0.20221   0.20523   0.20978   0.21071   0.21141
 Alpha virt. eigenvalues --    0.21350   0.21726   0.21855   0.21943   0.22052
 Alpha virt. eigenvalues --    0.22358   0.22370   0.22571   0.22888   0.23040
 Alpha virt. eigenvalues --    0.23238   0.23330   0.23767   0.24092   0.24158
 Alpha virt. eigenvalues --    0.24488   0.24610   0.24775   0.25001   0.25073
 Alpha virt. eigenvalues --    0.25437   0.25553   0.25856   0.26233   0.26416
 Alpha virt. eigenvalues --    0.26701   0.26901   0.26933   0.27232   0.27612
 Alpha virt. eigenvalues --    0.27686   0.28009   0.28087   0.28354   0.29201
 Alpha virt. eigenvalues --    0.29345   0.29471   0.29657   0.29957   0.30056
 Alpha virt. eigenvalues --    0.30394   0.30563   0.30886   0.31085   0.31327
 Alpha virt. eigenvalues --    0.31559   0.31844   0.32085   0.32485   0.32596
 Alpha virt. eigenvalues --    0.32783   0.32864   0.33377   0.33650   0.34028
 Alpha virt. eigenvalues --    0.34269   0.34386   0.34919   0.35144   0.35230
 Alpha virt. eigenvalues --    0.35774   0.35841   0.36082   0.36371   0.36745
 Alpha virt. eigenvalues --    0.36988   0.37358   0.37860   0.38106   0.38814
 Alpha virt. eigenvalues --    0.38948   0.39395   0.39575   0.39824   0.40096
 Alpha virt. eigenvalues --    0.40486   0.40877   0.41432   0.41998   0.42701
 Alpha virt. eigenvalues --    0.42896   0.43427   0.43944   0.44166   0.44657
 Alpha virt. eigenvalues --    0.44884   0.45766   0.46037   0.46311   0.46968
 Alpha virt. eigenvalues --    0.47627   0.48035   0.49002   0.49341   0.49563
 Alpha virt. eigenvalues --    0.49703   0.50400   0.50433   0.51109   0.51302
 Alpha virt. eigenvalues --    0.51607   0.52229   0.52437   0.52962   0.53090
 Alpha virt. eigenvalues --    0.53145   0.53597   0.54024   0.54423   0.54571
 Alpha virt. eigenvalues --    0.55181   0.55760   0.55996   0.56086   0.56347
 Alpha virt. eigenvalues --    0.57135   0.57415   0.57768   0.58378   0.58717
 Alpha virt. eigenvalues --    0.59009   0.59760   0.59940   0.60196   0.60736
 Alpha virt. eigenvalues --    0.61029   0.61261   0.61558   0.61667   0.62438
 Alpha virt. eigenvalues --    0.62565   0.62822   0.63621   0.63920   0.64253
 Alpha virt. eigenvalues --    0.64480   0.64744   0.65483   0.65682   0.66005
 Alpha virt. eigenvalues --    0.66426   0.66606   0.66880   0.67379   0.67853
 Alpha virt. eigenvalues --    0.68231   0.68408   0.68987   0.69142   0.69919
 Alpha virt. eigenvalues --    0.70153   0.70607   0.70742   0.71121   0.71681
 Alpha virt. eigenvalues --    0.72026   0.72197   0.72525   0.72931   0.72996
 Alpha virt. eigenvalues --    0.73817   0.74066   0.74216   0.74673   0.75123
 Alpha virt. eigenvalues --    0.75558   0.76071   0.76352   0.76787   0.77586
 Alpha virt. eigenvalues --    0.77867   0.78306   0.78861   0.79089   0.79254
 Alpha virt. eigenvalues --    0.79975   0.80599   0.81057   0.81430   0.82336
 Alpha virt. eigenvalues --    0.82694   0.82972   0.83450   0.84677   0.85156
 Alpha virt. eigenvalues --    0.85944   0.86521   0.87221   0.87644   0.88088
 Alpha virt. eigenvalues --    0.88236   0.88407   0.89127   0.89790   0.90126
 Alpha virt. eigenvalues --    0.90762   0.90878   0.91596   0.92624   0.93062
 Alpha virt. eigenvalues --    0.93150   0.93980   0.94035   0.94487   0.95345
 Alpha virt. eigenvalues --    0.96184   0.96574   0.97039   0.97780   0.98149
 Alpha virt. eigenvalues --    0.98402   0.98792   0.99605   1.00186   1.00466
 Alpha virt. eigenvalues --    1.00741   1.01017   1.01174   1.02010   1.02903
 Alpha virt. eigenvalues --    1.03340   1.03545   1.03805   1.04393   1.05000
 Alpha virt. eigenvalues --    1.05412   1.05994   1.06311   1.06644   1.06741
 Alpha virt. eigenvalues --    1.07326   1.07924   1.08596   1.09663   1.10564
 Alpha virt. eigenvalues --    1.11205   1.11490   1.12063   1.12392   1.13139
 Alpha virt. eigenvalues --    1.13503   1.13835   1.14309   1.14740   1.15277
 Alpha virt. eigenvalues --    1.15694   1.16329   1.16468   1.17463   1.18848
 Alpha virt. eigenvalues --    1.19605   1.19718   1.20364   1.20889   1.21390
 Alpha virt. eigenvalues --    1.21542   1.21914   1.23209   1.23399   1.23976
 Alpha virt. eigenvalues --    1.24448   1.25058   1.25124   1.26705   1.27177
 Alpha virt. eigenvalues --    1.27448   1.28542   1.28883   1.30586   1.31204
 Alpha virt. eigenvalues --    1.31874   1.33054   1.35246   1.35405   1.36701
 Alpha virt. eigenvalues --    1.36754   1.37772   1.38029   1.39999   1.40144
 Alpha virt. eigenvalues --    1.40736   1.42747   1.43183   1.44505   1.45814
 Alpha virt. eigenvalues --    1.47841   1.48127   1.49001   1.50586   1.51674
 Alpha virt. eigenvalues --    1.51881   1.52405   1.52516   1.53134   1.54556
 Alpha virt. eigenvalues --    1.54712   1.55292   1.55858   1.57412   1.57640
 Alpha virt. eigenvalues --    1.59005   1.59137   1.59918   1.60777   1.61238
 Alpha virt. eigenvalues --    1.61875   1.62450   1.63524   1.64100   1.64943
 Alpha virt. eigenvalues --    1.66446   1.67112   1.67795   1.69307   1.70166
 Alpha virt. eigenvalues --    1.71076   1.71908   1.72070   1.72587   1.75353
 Alpha virt. eigenvalues --    1.76531   1.77576   1.78418   1.78677   1.79730
 Alpha virt. eigenvalues --    1.80799   1.80989   1.82900   1.83396   1.83593
 Alpha virt. eigenvalues --    1.84147   1.84786   1.84913   1.85638   1.86568
 Alpha virt. eigenvalues --    1.86826   1.87744   1.87915   1.88370   1.89897
 Alpha virt. eigenvalues --    1.90109   1.90508   1.91502   1.92037   1.92337
 Alpha virt. eigenvalues --    1.92778   1.93931   1.94661   1.95820   1.96426
 Alpha virt. eigenvalues --    1.97495   1.98370   1.99212   2.00422   2.00725
 Alpha virt. eigenvalues --    2.01061   2.01769   2.02835   2.03266   2.04182
 Alpha virt. eigenvalues --    2.06133   2.07271   2.08251   2.09047   2.11633
 Alpha virt. eigenvalues --    2.12111   2.12720   2.14026   2.15160   2.16677
 Alpha virt. eigenvalues --    2.19467   2.20660   2.21528   2.23663   2.24413
 Alpha virt. eigenvalues --    2.24790   2.26674   2.27288   2.28063   2.28670
 Alpha virt. eigenvalues --    2.30944   2.31300   2.31363   2.31913   2.32114
 Alpha virt. eigenvalues --    2.32565   2.35251   2.36496   2.37016   2.37304
 Alpha virt. eigenvalues --    2.38737   2.39458   2.39915   2.40934   2.41592
 Alpha virt. eigenvalues --    2.43448   2.44891   2.45228   2.46769   2.48263
 Alpha virt. eigenvalues --    2.49388   2.49993   2.51878   2.53713   2.54854
 Alpha virt. eigenvalues --    2.55019   2.57547   2.58028   2.59292   2.62247
 Alpha virt. eigenvalues --    2.63562   2.63841   2.65536   2.65929   2.67560
 Alpha virt. eigenvalues --    2.67829   2.69938   2.70293   2.70959   2.71462
 Alpha virt. eigenvalues --    2.73105   2.74093   2.74953   2.75400   2.76326
 Alpha virt. eigenvalues --    2.76953   2.77368   2.80006   2.81020   2.81212
 Alpha virt. eigenvalues --    2.82280   2.83198   2.84017   2.85384   2.85564
 Alpha virt. eigenvalues --    2.85795   2.86096   2.87158   2.88352   2.89798
 Alpha virt. eigenvalues --    2.91273   2.92185   2.92527   2.93584   2.94189
 Alpha virt. eigenvalues --    2.94804   2.95115   2.95271   2.96035   2.96306
 Alpha virt. eigenvalues --    2.96821   2.97115   2.97834   2.98249   2.99453
 Alpha virt. eigenvalues --    2.99499   3.01324   3.02075   3.04095   3.05470
 Alpha virt. eigenvalues --    3.08073   3.08287   3.10254   3.11743   3.14458
 Alpha virt. eigenvalues --    3.14786   3.15578   3.16325   3.19132   3.21035
 Alpha virt. eigenvalues --    3.22632   3.22824   3.23957   3.24402   3.24884
 Alpha virt. eigenvalues --    3.26068   3.26882   3.28836   3.30559   3.31423
 Alpha virt. eigenvalues --    3.31978   3.33228   3.33589   3.34068   3.34328
 Alpha virt. eigenvalues --    3.34675   3.35008   3.36817   3.37780   3.38437
 Alpha virt. eigenvalues --    3.38976   3.40564   3.43068   3.43842   3.44548
 Alpha virt. eigenvalues --    3.46117   3.47222   3.47537   3.48748   3.48857
 Alpha virt. eigenvalues --    3.50667   3.54168   3.55032   3.57610   3.60263
 Alpha virt. eigenvalues --    3.61488   3.65307   3.66793   3.69129   3.70523
 Alpha virt. eigenvalues --    3.71168   3.72062   3.72908   3.73346   3.73456
 Alpha virt. eigenvalues --    3.75498   3.76524   3.78418   3.79092   3.82083
 Alpha virt. eigenvalues --    3.83143   3.85018   3.94529   3.96594   4.00696
 Alpha virt. eigenvalues --    4.05028   4.08687   4.09932   4.16523   4.18396
 Alpha virt. eigenvalues --    4.19069   4.22025   4.35930   4.37792   4.63062
 Alpha virt. eigenvalues --    4.77412   4.79408   4.81005   4.81791   4.97549
 Alpha virt. eigenvalues --    4.99745   5.02999   5.10002   5.12917   5.13830
 Alpha virt. eigenvalues --    5.13887   5.18205   5.20054   5.21959   5.23642
 Alpha virt. eigenvalues --    5.26693   5.28899   5.29287   5.30434   5.30843
 Alpha virt. eigenvalues --    5.38293   5.43967   5.47358   5.48450   5.68987
 Alpha virt. eigenvalues --    5.86223   8.48217  17.72748  17.79132  17.80251
 Alpha virt. eigenvalues --   23.40044  23.42102  23.47932  23.61611  23.62319
 Alpha virt. eigenvalues --   23.67956  23.73142  23.78959  23.87329  23.88509
 Alpha virt. eigenvalues --   23.90050  23.90574  23.93065  24.01017  24.03491
 Alpha virt. eigenvalues --   24.04199  24.04582  24.08325  24.11755  24.11907
 Alpha virt. eigenvalues --   24.13656  24.17069  24.19827  24.20028  24.20609
 Alpha virt. eigenvalues --   35.50569  49.77440  49.78720  49.89540  49.95153
 Alpha virt. eigenvalues --   49.97645  49.98184  50.04360 189.57394
 Electronic spatial extent (au):  <R**2>=         155313.2148
 Charge=              0.0000 electrons
 Dipole moment (field-independent basis, Debye):
    X=            -17.2213    Y=             -3.1814    Z=             -7.4594  Tot=             19.0352
 Quadrupole moment (field-independent basis, Debye-Ang):
   XX=           -441.1636   YY=           -210.6169   ZZ=           -311.8016
   XY=            -58.7344   XZ=           -220.3740   YZ=            -64.4525
 Traceless Quadrupole moment (field-independent basis, Debye-Ang):
   XX=           -119.9696   YY=            110.5772   ZZ=              9.3924
   XY=            -58.7344   XZ=           -220.3740   YZ=            -64.4525
 Octapole moment (field-independent basis, Debye-Ang**2):
  XXX=          -8130.3647  YYY=          -2127.7627  ZZZ=          -5903.2877  XYY=          -1967.0110
  XXY=          -1299.9777  XXZ=          -4499.6076  XZZ=          -4423.7017  YZZ=          -1575.0497
  YYZ=          -1693.9991  XYZ=           -755.4149
 Hexadecapole moment (field-independent basis, Debye-Ang**3):
 XXXX=        -140286.8028 YYYY=         -19468.0589 ZZZZ=         -91298.8233 XXXY=         -26786.8223
 XXXZ=         -76216.8036 YYYX=         -21622.3669 YYYZ=         -14315.6070 ZZZX=         -70626.6998
 ZZZY=         -24682.9185 XXYY=         -22752.1143 XXZZ=         -66451.5375 YYZZ=         -18392.0958
 XXYZ=         -12773.6610 YYXZ=         -15465.4432 ZZXY=         -16590.7137
 N-N= 3.776884314618D+03 E-N=-1.212632534132D+04  KE= 1.949995470039D+03
  Exact polarizability: 414.843 127.762 355.612-102.879-141.438 391.169
 Approx polarizability: 564.719 153.906 572.128-159.090-200.370 601.228
 No NMR shielding tensors so no spin-rotation constants.
 Leave Link  601 at Fri Jan 15 16:20:53 2021, MaxMem=  5368709120 cpu:        10.6
 (Enter /usr/local/bin/G09/G09d//g09/l602.exe)
 FitSet:  NAtFit=    61 NAtPot=    61 NAtFrz=     0 MDM=    65 TotChg=   0.00000
 Breneman (CHELPG) radii used.
 Generate Potential Derived Charges using the Breneman model, NDens= 1.
 Grid spacing= 0.300 Box extension= 2.800
 NStep X,Y,Z=   62     50     52   Total possible points=      161200
 Number of Points to Fit=   30042

 **********************************************************************

            Electrostatic Properties Using The SCF Density

 **********************************************************************

       Atomic Center    1 is at   4.981328  0.071552 10.993252
       Atomic Center    2 is at   5.237190 -0.321152 11.796859
       Atomic Center    3 is at   3.721703 -0.115648 10.538604
       Atomic Center    4 is at   3.115443 -0.622336 11.027606
       Atomic Center    5 is at   3.348624  0.456768  9.338043
       Atomic Center    6 is at   2.486605  0.336960  9.009138
       Atomic Center    7 is at   4.260512  1.200576  8.637825
       Atomic Center    8 is at   4.008560  1.584128  7.828959
       Atomic Center    9 is at   5.554116  1.395680  9.108582
       Atomic Center   10 is at   6.571241  2.139654  8.393078
       Atomic Center   11 is at   7.424292  2.184832  8.762582
       Atomic Center   12 is at   6.352534  2.762240  7.236733
       Atomic Center   13 is at   5.487633  2.713152  6.900267
       Atomic Center   14 is at   7.313628  3.510208  6.440030
       Atomic Center   15 is at   6.859881  4.162080  5.285657
       Atomic Center   16 is at   5.964942  4.086784  5.044526
       Atomic Center   17 is at   7.706735  4.910298  4.500788
       Atomic Center   18 is at   9.054207  5.005312  4.845144
       Atomic Center   19 is at   9.516534  4.350528  5.975355
       Atomic Center   20 is at  10.415511  4.407104  6.204980
       Atomic Center   21 is at   8.656140  3.617536  6.763017
       Atomic Center   22 is at   8.980968  3.189056  7.521586
       Atomic Center   23 is at   7.209337  0.995072 10.903999
       Atomic Center   24 is at   7.243593  0.545792 11.752479
       Atomic Center   25 is at   7.874112  0.624832 10.319170
       Atomic Center   26 is at   7.379610  1.931072 11.030893
       Atomic Center   27 is at  11.211774  5.821504  4.267876
       Atomic Center   28 is at  11.572521  4.932928  4.304859
       Atomic Center   29 is at  11.643778  6.314048  3.566836
       Atomic Center   30 is at  11.360398  6.262464  5.106986
       Atomic Center   31 is at   5.874834  0.814528 10.306020
       Atomic Center   32 is at   7.303978  5.576563  3.386193
       Atomic Center   33 is at   9.824057  5.755027  4.009650
       Atomic Center   34 is at   6.491451  5.358080  3.188784
       Atomic Center   35 is at  11.625734  3.489158  8.897037
       Atomic Center   36 is at  11.799321  4.840243  8.824879
       Atomic Center   37 is at  11.333829  5.398848  9.405271
       Atomic Center   38 is at  12.684164  5.393856  7.871531
       Atomic Center   39 is at  12.895367  6.789120  7.750719
       Atomic Center   40 is at  12.443058  7.374848  8.313851
       Atomic Center   41 is at  13.756273  7.278336  6.816602
       Atomic Center   42 is at  13.881943  8.196864  6.744115
       Atomic Center   43 is at  14.450900  6.418048  5.966807
       Atomic Center   44 is at  15.035548  6.766656  5.332174
       Atomic Center   45 is at  14.279507  5.076032  6.059348
       Atomic Center   46 is at  14.754396  4.512768  5.493257
       Atomic Center   47 is at  13.388097  4.521920  7.004971
       Atomic Center   48 is at  13.186172  3.129984  7.116085
       Atomic Center   49 is at  13.649195  2.551744  6.553445
       Atomic Center   50 is at  12.324882  2.624128  8.035244
       Atomic Center   51 is at  12.196412  1.704768  8.095239
       Atomic Center   52 is at   9.413483  3.682848 10.235176
       Atomic Center   53 is at  11.304968  2.659072 11.327088
       Atomic Center   54 is at  10.131317  1.509414  9.570298
       Atomic Center   55 is at  10.537122  2.790195 10.108447
       Atomic Center   56 is at   3.560232  2.189824  5.300286
       Atomic Center   57 is at   4.022351  2.146560  4.620450
       Atomic Center   58 is at   3.325427  3.020160  5.397922
       Atomic Center   59 is at   4.825874  4.922944  2.761915
       Atomic Center   60 is at   4.705227  4.293120  2.368577
       Atomic Center   61 is at   4.096599  5.366400  2.843607
   30042 points will be used for fitting atomic charges
 Fitting point charges to electrostatic potential
 Charges from ESP fit, RMS=   0.00411 RRMS=   0.10908:
 ESP charges:
               1
     1  C    0.085897
     2  H    0.127580
     3  C   -0.248188
     4  H    0.156601
     5  C    0.125802
     6  H    0.095995
     7  C   -0.415472
     8  H    0.277988
     9  C    0.475231
    10  C   -0.463110
    11  H    0.271346
    12  C    0.059960
    13  H    0.066858
    14  C    0.093640
    15  C   -0.461473
    16  H    0.185199
    17  C    0.379994
    18  C    0.321018
    19  C   -0.344856
    20  H    0.194050
    21  C   -0.021371
    22  H    0.047777
    23  C   -0.038831
    24  H    0.089615
    25  H    0.117460
    26  H    0.108110
    27  C    0.192461
    28  H   -0.018738
    29  H    0.037429
    30  H    0.005083
    31  N   -0.139084
    32  O   -0.850003
    33  O   -0.317416
    34  H    0.708897
    35  C   -0.089100
    36  C   -0.180885
    37  H    0.113839
    38  C    0.153279
    39  C   -0.237226
    40  H    0.146571
    41  C   -0.084504
    42  H    0.095228
    43  C   -0.096832
    44  H    0.101320
    45  C   -0.236548
    46  H    0.130689
    47  C    0.198338
    48  C   -0.308745
    49  H    0.153859
    50  C   -0.006496
    51  H    0.084295
    52  O   -0.758493
    53  O   -0.760664
    54  O   -0.774803
    55  S    1.507935
    56  O   -0.942643
    57  H    0.475974
    58  H    0.458651
    59  O   -1.108963
    60  H    0.532277
    61  H    0.528199
 Sum of ESP charges =   0.00000
 ESP charges with hydrogens summed into heavy atoms:
               1
     1  C    0.213477
     3  C   -0.091587
     5  C    0.221797
     7  C   -0.137484
     9  C    0.475231
    10  C   -0.191764
    12  C    0.126818
    14  C    0.093640
    15  C   -0.276274
    17  C    0.379994
    18  C    0.321018
    19  C   -0.150805
    21  C    0.026406
    23  C    0.276354
    27  C    0.216235
    31  N   -0.139084
    32  O   -0.141106
    33  O   -0.317416
    35  C   -0.089100
    36  C   -0.067047
    38  C    0.153279
    39  C   -0.090655
    41  C    0.010723
    43  C    0.004487
    45  C   -0.105860
    47  C    0.198338
    48  C   -0.154887
    50  C    0.077799
    52  O   -0.758493
    53  O   -0.760664
    54  O   -0.774803
[...]
     6         -2.26271015         -5.87986167        -20.64841793
     6         -3.70065693         -4.21546306        -22.06899866
     1         -3.40503204         -4.06315726        -23.79385333
     6         -5.56659505         -2.78596721        -20.94981228
     1         -6.52265776         -1.68624254        -21.93157663
     6        -13.23416097          3.08116119        -20.71457046
     1        -14.56586948          4.18814887        -21.25957016
     1        -11.64079743          3.71853546        -21.30108465
     1        -13.51070566          1.42290691        -21.39526755
     6          0.23624578         -7.13068254        -24.16740410
     1          0.63626027         -5.39947774        -24.53090292
     1          1.66996654         -8.17550207        -24.54239700
     1         -1.17316888         -7.65172398        -25.18216157
     7        -13.21361855          2.95267260        -17.93318373
     8         -1.24816490         -7.75779290        -16.75614283
     8         -0.38891388         -7.37401981        -21.58266563
     1         -1.49833229         -7.58235686        -15.15180944
     6         -6.87696379         -1.26461783        -27.56656796
     6         -6.89583094         -3.75371416        -28.23662280
     1         -8.36514394         -4.70039383        -28.04701978
     6         -4.69076980         -4.89834553        -29.21825814
     6         -4.60624229         -7.47689698        -29.93054643
     1         -6.04135226         -8.47654803        -29.75926644
     6         -2.43947354         -8.50111808        -30.86516036
     1         -2.40628046        -10.19914521        -31.31643444
     6         -0.26926944         -7.03382851        -31.15172083
     1          1.19929423         -7.75979740        -31.79139944
     6         -0.28540400         -4.55463815        -30.50337563
     1          1.16773087         -3.59288511        -30.71816323
     6         -2.48226777         -3.41287068        -29.50463474
     6         -2.54367569         -0.84164029        -28.80207799
     1         -1.10260365          0.14649931        -28.99440452
     6         -4.68175435          0.20859174        -27.85047513
     1         -4.69559931          1.90363937        -27.38490046
     8        -10.92663366         -1.65481672        -24.83649801
     8        -11.11080813          0.97417670        -28.55554390
     8         -8.78493332          2.30732632        -24.88493803
    16         -9.65200933          0.18884578        -26.38175624
     8         -6.73970336         -1.65024026        -10.70344440
     1         -5.20879515         -1.68997022        -10.97640026
     1         -7.25987283         -3.20522449        -10.63655920
     8         -1.97579219         -7.25331525        -11.85070536
     1         -1.26794297         -6.23600235        -11.15424025
     1         -2.77420639         -8.19841929        -10.80445076

 Electric dipole moment (dipole orientation):
 (Debye = 10**-18 statcoulomb cm , SI units = C m)
                  (au)            (Debye)         (10**-30 SI)
   Tot        0.748902D+01      0.190352D+02      0.634945D+02
   x          0.000000D+00      0.000000D+00      0.000000D+00
   y          0.000000D+00      0.000000D+00      0.000000D+00
   z          0.748902D+01      0.190352D+02      0.634945D+02

 Dipole polarizability, Alpha (dipole orientation).
 (esu units = cm**3 , SI units = C**2 m**2 J**-1)
 Alpha(0;0):
               (au)            (10**-24 esu)      (10**-40 SI)
   iso        0.387208D+03      0.573783D+02      0.638420D+02
   aniso      0.378684D+03      0.561152D+02      0.624366D+02
   xx         0.432214D+03      0.640474D+02      0.712624D+02
   yx        -0.175604D+03     -0.260219D+02     -0.289532D+02
   yy         0.372696D+03      0.552279D+02      0.614493D+02
   zx        -0.100714D+03     -0.149243D+02     -0.166055D+02
   zy         0.723703D+02      0.107242D+02      0.119323D+02
   zz         0.356715D+03      0.528597D+02      0.588144D+02
 Alpha(-w;w) w=  632.8nm:
                  (au)         (10**-24 esu)      (10**-40 SI)
   iso        0.469302D+03      0.695433D+02      0.773774D+02
   aniso      0.610068D+03      0.904027D+02      0.100587D+03
   xx         0.561876D+03      0.832615D+02      0.926409D+02
   yx        -0.272271D+03     -0.403464D+02     -0.448914D+02
   yy         0.456399D+03      0.676313D+02      0.752500D+02
   zx        -0.165427D+03     -0.245138D+02     -0.272753D+02
   zy         0.122561D+03      0.181617D+02      0.202076D+02
   zz         0.389629D+03      0.577371D+02      0.642412D+02

 First dipole hyperpolarizability, Beta (dipole orientation).
 ||, _|_  parallel and perpendicular components, (z) with respect to z axis,
 vector components x,y,z.  Values do not include the 1/n! factor of 1/2.
 (esu units = statvolt**-1 cm**4 , SI units = C**3 m**3 J**-2)
 Beta(0;0,0):
               (au)            (10**-30 esu)      (10**-50 SI)
   || (z)     0.332195D+04      0.286991D+02      0.106514D+02
   _|_(z)     0.110732D+04      0.956637D+01      0.355046D+01
   x         -0.264417D+05     -0.228436D+03     -0.847817D+02
   y          0.206295D+05      0.178223D+03      0.661456D+02
   z          0.166098D+05      0.143495D+03      0.532569D+02
   ||         0.748499D+04      0.646644D+02      0.239996D+02
   xxx       -0.475718D+04     -0.410983D+02     -0.152532D+02
   xxy        0.363197D+04      0.313774D+02      0.116454D+02
   yxy       -0.279084D+04     -0.241107D+02     -0.894844D+01
   yyy        0.221429D+04      0.191297D+02      0.709981D+01
   xxz        0.270411D+04      0.233614D+02      0.867035D+01
   yxz       -0.209318D+04     -0.180834D+02     -0.671148D+01
   yyz        0.161142D+04      0.139214D+02      0.516680D+01
   zxz       -0.126589D+04     -0.109363D+02     -0.405890D+01
   zyz        0.103023D+04      0.890039D+01      0.330329D+01
   zzz        0.122106D+04      0.105490D+02      0.391516D+01
 Beta(-w;w,0) w=  632.8nm:
                  (au)         (10**-30 esu)      (10**-50 SI)
   || (z)     0.244625D+05      0.211337D+03      0.784356D+02
   _|_(z)     0.815345D+04      0.704394D+02      0.261429D+02
   x         -0.114211D+06     -0.986690D+03     -0.366200D+03
   y          0.882030D+05      0.762005D+03      0.282811D+03
   z          0.122312D+06      0.105668D+04      0.392178D+03
   ||         0.378334D+05      0.326851D+03      0.121308D+03
   xxx       -0.204533D+05     -0.176701D+03     -0.655807D+02
   yxx        0.156848D+05      0.135504D+03      0.502911D+02
   yyx       -0.120577D+05     -0.104169D+03     -0.386612D+02
   zxx        0.107894D+05      0.932117D+02      0.345946D+02
   zyx       -0.826508D+04     -0.714039D+02     -0.265008D+02
   zzx       -0.923265D+04     -0.797629D+02     -0.296032D+02
   xxy        0.158661D+05      0.137070D+03      0.508723D+02
   yxy       -0.122726D+05     -0.106026D+03     -0.393504D+02
   yyy        0.958288D+04      0.827887D+02      0.307262D+02
   zxy       -0.851034D+04     -0.735227D+02     -0.272872D+02
   zyy        0.653024D+04      0.564162D+02      0.209383D+02
   zzy        0.698307D+04      0.603283D+02      0.223903D+02
   xxz        0.107938D+05      0.932503D+02      0.346089D+02
   yxz       -0.839736D+04     -0.725467D+02     -0.269250D+02
   yyz        0.652363D+04      0.563591D+02      0.209171D+02
   zxz       -0.350755D+04     -0.303025D+02     -0.112465D+02
   zyz        0.261783D+04      0.226160D+02      0.839371D+01
   zzz        0.234519D+05      0.202606D+03      0.751954D+02
 Beta(-2w;w,w) w=  632.8nm:
                  (au)         (10**-30 esu)      (10**-50 SI)
   || (z)    -0.698216D+04     -0.603204D+02     -0.223873D+02
   _|_(z)    -0.478300D+03     -0.413214D+01     -0.153360D+01
   x          0.814646D+05      0.703791D+03      0.261205D+03
   y         -0.669889D+05     -0.578732D+03     -0.214791D+03
   z         -0.349108D+05     -0.301602D+03     -0.111937D+03
   ||         0.222196D+05      0.191960D+03      0.712441D+02
   xxx        0.145346D+05      0.125567D+03      0.466031D+02
   yxx       -0.113006D+05     -0.976287D+02     -0.362339D+02
   zxx       -0.515501D+04     -0.445352D+02     -0.165288D+02
   xyx       -0.113329D+05     -0.979073D+02     -0.363373D+02
   yyx        0.918299D+04      0.793339D+02      0.294440D+02
   zyx        0.390802D+04      0.337623D+02      0.125305D+02
   xyy        0.877331D+04      0.757946D+02      0.281304D+02
   yyy       -0.741627D+04     -0.640708D+02     -0.237792D+02
   zyy       -0.299832D+04     -0.259031D+02     -0.961369D+01
   xzx       -0.812420D+04     -0.701867D+02     -0.260491D+02
   yzx        0.666853D+04      0.576109D+02      0.213817D+02
   zzx        0.372145D+04      0.321504D+02      0.119323D+02
   xzy        0.674410D+04      0.582638D+02      0.216240D+02
   yzy       -0.557638D+04     -0.481756D+02     -0.178799D+02
   zzy       -0.310672D+04     -0.268396D+02     -0.996127D+01
   xzz        0.327866D+04      0.283251D+02      0.105126D+02
   yzz       -0.456031D+04     -0.393975D+02     -0.146220D+02
   zzz        0.214564D+03      0.185366D+01      0.687969D+00

 Second dipole hyperpolarizability, Gamma (dipole orientation).
 ||, _|_  isotropic parallel and perpendicular components.
 Values do not include the 1/n! factor of 1/6.
 (esu units = statvolt**-2 cm**5 , SI units = C**4 m**4 J**-3)
 Gamma(0;0,0,0):
               (au)            (10**-36 esu)      (10**-61 SI)
   ||         0.315784D+06      0.159051D+03      0.196903D+03
   _|_        0.105261D+06      0.530169D+02      0.656344D+02
   xxxx       0.336806D+06      0.169639D+03      0.210012D+03
   xxyx      -0.216555D+06     -0.109072D+03     -0.135030D+03
   xxyy       0.178871D+06      0.900918D+02      0.111533D+03
   yxyy      -0.139731D+06     -0.703785D+02     -0.871278D+02
   yyyy       0.159731D+06      0.804515D+02      0.995982D+02
   xxzx      -0.162534D+06     -0.818634D+02     -0.101346D+03
   xxzy       0.121760D+06      0.613268D+02      0.759220D+02
   yxzy      -0.990561D+05     -0.498916D+02     -0.617653D+02
   yyzy       0.837977D+05      0.422063D+02      0.522510D+02
   xxzz       0.103411D+06      0.520850D+02      0.644808D+02
   yxzz      -0.660653D+05     -0.332751D+02     -0.411942D+02
   yyzz       0.756891D+05      0.381223D+02      0.471951D+02
   zxzz      -0.409643D+05     -0.206325D+02     -0.255428D+02
   zyzz       0.323020D+05      0.162695D+02      0.201415D+02
   zzzz       0.366345D+06      0.184517D+03      0.228430D+03
 Gamma(-w;w,0,0) w=  632.8nm:
                  (au)         (10**-36 esu)      (10**-61 SI)
   ||        -0.231413D+08     -0.116556D+05     -0.144295D+05
   _|_       -0.666871D+07     -0.335883D+04     -0.415819D+04
   xxxx       0.363665D+07      0.183167D+04      0.226759D+04
   yxxx      -0.273079D+07     -0.137541D+04     -0.170275D+04
   yyxx       0.210733D+07      0.106140D+04      0.131400D+04
   zxxx      -0.233358D+07     -0.117536D+04     -0.145508D+04
   zyxx       0.178011D+07      0.896590D+03      0.110997D+04
   zzxx      -0.339508D+07     -0.171000D+04     -0.211696D+04
   xxyx      -0.279931D+07     -0.140993D+04     -0.174548D+04
   yxyx       0.217360D+07      0.109478D+04      0.135532D+04
   yyyx      -0.168724D+07     -0.849810D+03     -0.105206D+04
   zxyx       0.178797D+07      0.900547D+03      0.111487D+04
   zyyx      -0.138590D+07     -0.698037D+03     -0.864163D+03
   zzyx       0.206079D+07      0.103796D+04      0.128498D+04
   xxyy       0.225956D+07      0.113807D+04      0.140892D+04
   yxyy      -0.176680D+07     -0.889886D+03     -0.110167D+04
   yyyy       0.144220D+07      0.726394D+03      0.899269D+03
   zxyy      -0.120724D+07     -0.608051D+03     -0.752761D+03
   zyyy       0.941440D+06      0.474175D+03      0.587024D+03
   zzyy       0.804545D+06      0.405225D+03      0.501664D+03
   xxzx      -0.148124D+07     -0.746058D+03     -0.923612D+03
   yxzx       0.109876D+07      0.553414D+03      0.685121D+03
   yyzx      -0.832472D+06     -0.419291D+03     -0.519078D+03
   zxzx       0.447004D+07      0.225142D+04      0.278724D+04
   zyzx      -0.355639D+07     -0.179124D+04     -0.221754D+04
   zzzx       0.358684D+08      0.180658D+05      0.223653D+05
   xxzy       0.136510D+07      0.687561D+03      0.851194D+03
   yxzy      -0.106311D+07     -0.535458D+03     -0.662891D+03
   yyzy       0.837114D+06      0.421629D+03      0.521972D+03
   zxzy      -0.707690D+06     -0.356442D+03     -0.441272D+03
   zyzy       0.537444D+06      0.270694D+03      0.335117D+03
   zzzy       0.194778D+07      0.981037D+03      0.121451D+04
   xxzz       0.668070D+05      0.336486D+02      0.416567D+02
   yxzz       0.106951D+06      0.538678D+02      0.666878D+02
   yyzz      -0.143522D+06     -0.722879D+02     -0.894917D+02
   zxzz      -0.132090D+08     -0.665297D+04     -0.823631D+04
   zyzz       0.107688D+08      0.542392D+04      0.671477D+04
   zzzz      -0.130323D+09     -0.656397D+05     -0.812613D+05
 Gamma(-2w;w,w,0) w=  632.8nm:
                  (au)         (10**-36 esu)      (10**-61 SI)
   ||         0.210295D+06      0.105919D+03      0.131127D+03
   _|_       -0.181736D+06     -0.915352D+02     -0.415819D+04
   xxxx       0.112133D+07      0.564781D+03      0.699194D+03
   yxxx      -0.360786D+07     -0.181717D+04     -0.224964D+04
   zxxx      -0.123871D+07     -0.623900D+03     -0.772382D+03
   xyxx      -0.112049D+07     -0.564355D+03     -0.698666D+03
   yyxx       0.149019D+07      0.750562D+03      0.929188D+03
   zyxx       0.922472D+06      0.464621D+03      0.575197D+03
   xyyx       0.133092D+07      0.670343D+03      0.829877D+03
   yyyx       0.128350D+06      0.646462D+02      0.800313D+02
   zyyx      -0.692341D+06     -0.348711D+03     -0.431701D+03
   xzxx      -0.127225D+07     -0.640791D+03     -0.793293D+03
   yzxx      -0.294904D+06     -0.148534D+03     -0.183884D+03
   zzxx       0.567704D+06      0.285935D+03      0.353985D+03
   xzyx       0.725853D+06      0.365590D+03      0.452597D+03
   yzyx       0.132570D+06      0.667717D+02      0.826628D+02
   zzyx      -0.833109D+05     -0.419612D+02     -0.519475D+02
   xzzx       0.128494D+07      0.647185D+03      0.801209D+03
   yzzx       0.773215D+07      0.389445D+04      0.482129D+04
   zzzx      -0.439117D+06     -0.221170D+03     -0.273806D+03
   xxxy      -0.595934D+06     -0.300154D+03     -0.371588D+03
   yxxy       0.474685D+07      0.239085D+04      0.295984D+04
   zxxy       0.142137D+07      0.715899D+03      0.886276D+03
   xyxy       0.108025D+07      0.544090D+03      0.673578D+03
   yyxy      -0.149600D+07     -0.753488D+03     -0.932811D+03
   zyxy      -0.100898D+07     -0.508190D+03     -0.629135D+03
   xyyy      -0.152132D+07     -0.766244D+03     -0.948602D+03
   yyyy      -0.832887D+06     -0.419500D+03     -0.519337D+03
   zyyy       0.711426D+06      0.358324D+03      0.443601D+03
   xzxy       0.141093D+07      0.710643D+03      0.879769D+03
   yzxy       0.746631D+05      0.376055D+02      0.465553D+02
   zzxy      -0.592154D+06     -0.298250D+03     -0.369230D+03
   xzyy      -0.887953D+06     -0.447235D+03     -0.553672D+03
   yzyy      -0.682685D+06     -0.343848D+03     -0.425680D+03
   zzyy       0.349837D+06      0.176202D+03      0.218136D+03
   xzzy      -0.503248D+07     -0.253471D+04     -0.313794D+04
   yzzy      -0.676351D+07     -0.340658D+04     -0.421731D+04
   zzzy       0.138603D+06      0.698101D+02      0.864243D+02
   xxxz       0.352389D+06      0.177487D+03      0.219728D+03
   yxxz       0.206802D+07      0.104160D+04      0.128949D+04
   zxxz       0.501526D+06      0.252603D+03      0.312720D+03
   xyxz       0.655525D+04      0.330168D+01      0.408745D+01
   yyxz      -0.455342D+06     -0.229342D+03     -0.283923D+03
   zyxz      -0.289440D+06     -0.145782D+03     -0.180477D+03
   xyyz      -0.345010D+06     -0.173771D+03     -0.215127D+03
   yyyz      -0.720476D+06     -0.362882D+03     -0.449244D+03
   zyyz       0.175367D+06      0.883271D+02      0.109348D+03
   xzxz       0.526119D+06      0.264990D+03      0.328055D+03
   yzxz       0.168110D+07      0.846718D+03      0.104823D+04
   zzxz       0.414008D+05      0.208523D+02      0.258150D+02
   xzyz      -0.122588D+06     -0.617440D+02     -0.764385D+02
   yzyz      -0.471493D+06     -0.237477D+03     -0.293994D+03
   zzyz      -0.659648D+06     -0.332245D+03     -0.411316D+03
   xzzz       0.419887D+07      0.211484D+04      0.261815D+04
   yzzz      -0.128109D+08     -0.645248D+04     -0.798811D+04
   zzzz      -0.202407D+07     -0.101946D+04     -0.126208D+04

 ----------------------------------------------------------------------
 1\1\GINC-FLAME3\SP\RM06\6-311+G(d)\C25H27N1O7S1\DANIELMACHADO\18-Jan-2
 021\0\\#p M06/6-311+g(d) polar=gamma pop=chelpg density=current NoSymm
 \\ONL_VSNS_0_M06\\0,1\C,0,4.981328,0.071552,10.993252\H,0,5.23719,-0.3
 21152,11.796859\C,0,3.721703,-0.115648,10.538604\H,0,3.115443,-0.62233
 6,11.027606\C,0,3.348624,0.456768,9.338043\H,0,2.486605,0.33696,9.0091
 38\C,0,4.260512,1.200576,8.637825\H,0,4.00856,1.584128,7.828959\C,0,5.
 554116,1.39568,9.108582\C,0,6.571241,2.139654,8.393078\H,0,7.424292,2.
 184832,8.762582\C,0,6.352534,2.76224,7.236733\H,0,5.487633,2.713152,6.
 900267\C,0,7.313628,3.510208,6.44003\C,0,6.859881,4.16208,5.285657\H,0
 ,5.964942,4.086784,5.044526\C,0,7.706735,4.910298,4.500788\C,0,9.05420
 7,5.005312,4.845144\C,0,9.516534,4.350528,5.975355\H,0,10.415511,4.407
 104,6.20498\C,0,8.65614,3.617536,6.763017\H,0,8.980968,3.189056,7.5215
 86\C,0,7.209337,0.995072,10.903999\H,0,7.243593,0.545792,11.752479\H,0
 ,7.874112,0.624832,10.31917\H,0,7.37961,1.931072,11.030893\C,0,11.2117
 74,5.821504,4.267876\H,0,11.572521,4.932928,4.304859\H,0,11.643778,6.3
 14048,3.566836\H,0,11.360398,6.262464,5.106986\N,0,5.874834,0.814528,1
 0.30602\O,0,7.303978,5.576563,3.386193\O,0,9.824057,5.755027,4.00965\H
 ,0,6.491451,5.35808,3.188784\C,0,11.625734,3.489158,8.897037\C,0,11.79
 9321,4.840243,8.824879\H,0,11.333829,5.398848,9.405271\C,0,12.684164,5
 .393856,7.871531\C,0,12.895367,6.78912,7.750719\H,0,12.443058,7.374848
 ,8.313851\C,0,13.756273,7.278336,6.816602\H,0,13.881943,8.196864,6.744
 115\C,0,14.4509,6.418048,5.966807\H,0,15.035548,6.766656,5.332174\C,0,
 14.279507,5.076032,6.059348\H,0,14.754396,4.512768,5.493257\C,0,13.388
 097,4.52192,7.004971\C,0,13.186172,3.129984,7.116085\H,0,13.649195,2.5
 51744,6.553445\C,0,12.324882,2.624128,8.035244\H,0,12.196412,1.704768,
 8.095239\O,0,9.413483,3.682848,10.235176\O,0,11.304968,2.659072,11.327
 088\O,0,10.131317,1.509414,9.570298\S,0,10.537122,2.790195,10.108447\O
 ,0,3.560232,2.189824,5.300286\H,0,4.022351,2.14656,4.62045\H,0,3.32542
 7,3.02016,5.397922\O,0,4.825874,4.922944,2.761915\H,0,4.705227,4.29312
 ,2.368577\H,0,4.096599,5.3664,2.843607\\Version=EM64L-G09RevD.01\HF=-1
 947.0938313\RMSD=7.976e-09\Dipole=-6.7753908,-1.25165,-2.9347617\Polar
 =414.8431823,127.7616801,355.6124576,-102.8785149,-141.4380273,391.168
 9172\HyperPolar=-2868.0254843,-2426.2971004,-2162.0145074,-1977.320141
 2,2473.2061928,2391.834376,2110.9344979,-2862.7841679,-2302.7196523,23
 69.5188568\DQPolar=9552.2812852,-2517.3951279,-7034.8861574,4611.14004
 71,4186.0159144,1212.983472,2370.7152374,3231.6756945,-5602.3909319,69
 69.3221884,-180.509544,4275.0016204,-5493.2436289,-3658.816421,9152.06
 00499,-2680.551535,4824.5983344,450.0961508\Quadrupole=-89.1944333,82.
 2114092,6.9830241,-43.6675653,-163.8427109,-47.918872\PG=C01 [X(C25H27
 N1O7S1)]\\@


 A people that values its privileges above its principles soon loses both.
 -- Dwight D. Eisenhower
 Job cpu time:      28 days  4 hours 37 minutes 27.0 seconds.
 File lengths (MBytes):  RWF=   9088 Int=      0 D2E=      0 Chk=    122 Scr=      1
 Normal termination of Gaussian 09 at Mon Jan 18 16:39:14 2021.
Mon Jan 18 16:39:14 -02 2021
