Wed Jan 13 17:55:31 -02 2021
flame1
 Entering Gaussian System, Link 0=/usr/local/bin/G09/G09d/g09/g09
 Initial command:
 /usr/local/bin/G09/G09d//g09/l1.exe "/work/danielmachado/job-23459/Gau-29189.inp" -scrdir="/work/danielmachado/job-23459/"
 Entering Link 1 = /usr/local/bin/G09/G09d//g09/l1.exe PID=     29191.
  
 Copyright (c) 1988,1990,1992,1993,1995,1998,2003,2009,2013,
            Gaussian, Inc.  All Rights Reserved.
  
 This is part of the Gaussian(R) 09 program.  It is based on
 the Gaussian(R) 03 system (copyright 2003, Gaussian, Inc.),
 the Gaussian(R) 98 system (copyright 1998, Gaussian, Inc.),
 the Gaussian(R) 94 system (copyright 1995, Gaussian, Inc.),
 the Gaussian 92(TM) system (copyright 1992, Gaussian, Inc.),
 the Gaussian 90(TM) system (copyright 1990, Gaussian, Inc.),
 the Gaussian 88(TM) system (copyright 1988, Gaussian, Inc.),
 the Gaussian 86(TM) system (copyright 1986, Carnegie Mellon
 University), and the Gaussian 82(TM) system (copyright 1983,
 Carnegie Mellon University). Gaussian is a federally registered
 trademark of Gaussian, Inc.
  
 This software contains proprietary and confidential information,
 including trade secrets, belonging to Gaussian, Inc.
  
 This software is provided under written license and may be
 used, copied, transmitted, or stored only in accord with that
 written license.
  
 The following legend is applicable only to US Government
 contracts under FAR:
  
                    RESTRICTED RIGHTS LEGEND
  
 Use, reproduction and disclosure by the US Government is
 subject to restrictions as set forth in subparagraphs (a)
 and (c) of the Commercial Computer Software - Restricted
 Rights clause in FAR 52.227-19.
  
 Gaussian, Inc.
 340 Quinnipiac St., Bldg. 40, Wallingford CT 06492
  
  
 ---------------------------------------------------------------
 Warning -- This program may not be used in any manner that
 competes with the business of Gaussian, Inc. or will provide
 assistance to any competitor of Gaussian, Inc.  The licensee
 of this program is prohibited from giving any competitor of
 Gaussian, Inc. access to this program.  By using this program,
 the user acknowledges that Gaussian, Inc. is engaged in the
 business of creating and licensing software in the field of
 computational chemistry and represents and warrants to the
 licensee that it is not a competitor of Gaussian, Inc. and that
 it will not use this program in any manner prohibited above.
 ---------------------------------------------------------------
  

 Cite this work as:
 Gaussian 09, Revision D.01,
 M. J. Frisch, G. W. Trucks, H. B. Schlegel, G. E. Scuseria, 
 M. A. Robb, J. R. Cheeseman, G. Scalmani, V. Barone, B. Mennucci, 
 G. A. Petersson, H. Nakatsuji, M. Caricato, X. Li, H. P. Hratchian, 
 A. F. Izmaylov, J. Bloino, G. Zheng, J. L. Sonnenberg, M. Hada, 
 M. Ehara, K. Toyota, R. Fukuda, J. Hasegawa, M. Ishida, T. Nakajima, 
 Y. Honda, O. Kitao, H. Nakai, T. Vreven, J. A. Montgomery, Jr., 
 J. E. Peralta, F. Ogliaro, M. Bearpark, J. J. Heyd, E. Brothers, 
 K. N. Kudin, V. N. Staroverov, T. Keith, R. Kobayashi, J. Normand, 
 K. Raghavachari, A. Rendell, J. C. Burant, S. S. Iyengar, J. Tomasi, 
 M. Cossi, N. Rega, J. M. Millam, M. Klene, J. E. Knox, J. B. Cross, 
 V. Bakken, C. Adamo, J. Jaramillo, R. Gomperts, R. E. Stratmann, 
 O. Yazyev, A. J. Austin, R. Cammi, C. Pomelli, J. W. Ochterski, 
 R. L. Martin, K. Morokuma, V. G. Zakrzewski, G. A. Voth, 
 P. Salvador, J. J. Dannenberg, S. Dapprich, A. D. Daniels, 
 O. Farkas, J. B. Foresman, J. V. Ortiz, J. Cioslowski, 
 and D. J. Fox, Gaussian, Inc., Wallingford CT, 2013.
 
 ******************************************
 Gaussian 09:  EM64L-G09RevD.01 24-Apr-2013
                13-Jan-2021 
 ******************************************
 %nprocshared=8
 Will use up to    8 processors via shared memory.
 %chk=ONL_VSNS_0_B3LYP.chk
 %mem=48GB
 -----------------------------------------------------------------
 #p B3LYP/6-311+g(d) polar=gamma pop=chelpg density=current NoSymm
 -----------------------------------------------------------------
 1/30=1,38=101,83=1,84=49/1,6;
 2/12=2,15=1,17=6,18=5,40=1/2;
 3/5=4,6=6,7=11,11=2,16=1,25=1,30=1,74=-5/1,2,3;
 4/69=2/1;
 5/5=2,38=5,96=-2,98=1/2;
 8/6=4,10=90,11=11/1;
 10/6=20001,13=10,31=1,60=-2,72=3/2;
 6/7=2,8=2,9=2,10=2,12=2,15=8,20=3,22=-1,28=1/1,2;
 1/38=100,84=49/6(1);
 99/9=1/99;
 3/5=4,6=6,7=11,11=2,14=-3,16=1,25=1,30=1,74=-5/1,2,3;
 4/5=5,16=3,69=2/1;
 5/5=2,38=5,96=-2,98=1/2;
 8/6=4,10=90,11=11/1;
 10/6=20001,13=10,31=1,60=-2,72=3/2;
 6/7=2,8=2,9=2,10=2,12=2,15=8,20=3,22=-1,28=1/1,2;
 1/38=100,84=49/6(-6);
 99/9=1/99;
 Leave Link    1 at Wed Jan 13 17:55:32 2021, MaxMem=  6442450944 cpu:         0.8
 (Enter /usr/local/bin/G09/G09d//g09/l101.exe)
 ----------------
 ONL_VSNS_0_B3LYP
 ----------------
 Symbolic Z-matrix:
 Charge =  0 Multiplicity = 1
 C                     4.98133   0.07155   10.99325 
 H                     5.23719  -0.32115   11.79686 
 C                     3.7217   -0.11565   10.5386 
 H                     3.11544  -0.62234   11.02761 
 C                     3.34862   0.45677   9.33804 
 H                     2.4866    0.33696   9.00914 
 C                     4.26051   1.20058   8.63782 
 H                     4.00856   1.58413   7.82896 
 C                     5.55412   1.39568   9.10858 
 C                     6.57124   2.13965   8.39308 
 H                     7.42429   2.18483   8.76258 
 C                     6.35253   2.76224   7.23673 
 H                     5.48763   2.71315   6.90027 
 C                     7.31363   3.51021   6.44003 
 C                     6.85988   4.16208   5.28566 
 H                     5.96494   4.08678   5.04453 
 C                     7.70674   4.9103    4.50079 
 C                     9.05421   5.00531   4.84514 
 C                     9.51653   4.35053   5.97536 
 H                     10.41551   4.4071    6.20498 
 C                     8.65614   3.61754   6.76302 
 H                     8.98097   3.18906   7.52159 
 C                     7.20934   0.99507   10.904 
 H                     7.24359   0.54579   11.75248 
 H                     7.87411   0.62483   10.31917 
 H                     7.37961   1.93107   11.03089 
 C                     11.21177   5.8215    4.26788 
 H                     11.57252   4.93293   4.30486 
 H                     11.64378   6.31405   3.56684 
 H                     11.3604   6.26246   5.10699 
 N                     5.87483   0.81453   10.30602 
 O                     7.30398   5.57656   3.38619 
 O                     9.82406   5.75503   4.00965 
 H                     6.49145   5.35808   3.18878 
 C                     11.62573   3.48916   8.89704 
 C                     11.79932   4.84024   8.82488 
 H                     11.33383   5.39885   9.40527 
 C                     12.68416   5.39386   7.87153 
 C                     12.89537   6.78912   7.75072 
 H                     12.44306   7.37485   8.31385 
 C                     13.75627   7.27834   6.8166 
 H                     13.88194   8.19686   6.74412 
 C                     14.4509   6.41805   5.96681 
 H                     15.03555   6.76666   5.33217 
 C                     14.27951   5.07603   6.05935 
 H                     14.7544   4.51277   5.49326 
 C                     13.3881   4.52192   7.00497 
 C                     13.18617   3.12998   7.11608 
 H                     13.6492   2.55174   6.55344 
 C                     12.32488   2.62413   8.03524 
 H                     12.19641   1.70477   8.09524 
 O                     9.41348   3.68285   10.23518 
 O                     11.30497   2.65907   11.32709 
 O                     10.13132   1.50941   9.5703 
 S                     10.53712   2.7902    10.10845 
 O                     3.56023   2.18982   5.30029 
 H                     4.02235   2.14656   4.62045 
 H                     3.32543   3.02016   5.39792 
 O                     4.82587   4.92294   2.76192 
 H                     4.70523   4.29312   2.36858 
 H                     4.0966    5.3664    2.84361 
 
 NAtoms=     61 NQM=       61 NQMF=       0 NMMI=      0 NMMIF=      0
                NMic=       0 NMicF=      0.
                    Isotopes and Nuclear Properties:
 (Nuclear quadrupole moments (NQMom) in fm**2, nuclear magnetic moments (NMagM)
  in nuclear magnetons)

  Atom         1           2           3           4           5           6           7           8           9          10
 IAtWgt=          12           1          12           1          12           1          12           1          12          12
 AtmWgt=  12.0000000   1.0078250  12.0000000   1.0078250  12.0000000   1.0078250  12.0000000   1.0078250  12.0000000  12.0000000
 NucSpn=           0           1           0           1           0           1           0           1           0           0
 AtZEff=   0.0000000   0.0000000   0.0000000   0.0000000   0.0000000   0.0000000   0.0000000   0.0000000   0.0000000   0.0000000
 NQMom=    0.0000000   0.0000000   0.0000000   0.0000000   0.0000000   0.0000000   0.0000000   0.0000000   0.0000000   0.0000000
 NMagM=    0.0000000   2.7928460   0.0000000   2.7928460   0.0000000   2.7928460   0.0000000   2.7928460   0.0000000   0.0000000
 AtZNuc=   6.0000000   1.0000000   6.0000000   1.0000000   6.0000000   1.0000000   6.0000000   1.0000000   6.0000000   6.0000000

  Atom        11          12          13          14          15          16          17          18          19          20
 IAtWgt=           1          12           1          12          12           1          12          12          12           1
 AtmWgt=   1.0078250  12.0000000   1.0078250  12.0000000  12.0000000   1.0078250  12.0000000  12.0000000  12.0000000   1.0078250
 NucSpn=           1           0           1           0           0           1           0           0           0           1
 AtZEff=   0.0000000   0.0000000   0.0000000   0.0000000   0.0000000   0.0000000   0.0000000   0.0000000   0.0000000   0.0000000
 NQMom=    0.0000000   0.0000000   0.0000000   0.0000000   0.0000000   0.0000000   0.0000000   0.0000000   0.0000000   0.0000000
 NMagM=    2.7928460   0.0000000   2.7928460   0.0000000   0.0000000   2.7928460   0.0000000   0.0000000   0.0000000   2.7928460
 AtZNuc=   1.0000000   6.0000000   1.0000000   6.0000000   6.0000000   1.0000000   6.0000000   6.0000000   6.0000000   1.0000000

  Atom        21          22          23          24          25          26          27          28          29          30
 IAtWgt=          12           1          12           1           1           1          12           1           1           1
 AtmWgt=  12.0000000   1.0078250  12.0000000   1.0078250   1.0078250   1.0078250  12.0000000   1.0078250   1.0078250   1.0078250
 NucSpn=           0           1           0           1           1           1           0           1           1           1
 AtZEff=   0.0000000   0.0000000   0.0000000   0.0000000   0.0000000   0.0000000   0.0000000   0.0000000   0.0000000   0.0000000
 NQMom=    0.0000000   0.0000000   0.0000000   0.0000000   0.0000000   0.0000000   0.0000000   0.0000000   0.0000000   0.0000000
 NMagM=    0.0000000   2.7928460   0.0000000   2.7928460   2.7928460   2.7928460   0.0000000   2.7928460   2.7928460   2.7928460
 AtZNuc=   6.0000000   1.0000000   6.0000000   1.0000000   1.0000000   1.0000000   6.0000000   1.0000000   1.0000000   1.0000000

  Atom        31          32          33          34          35          36          37          38          39          40
 IAtWgt=          14          16          16           1          12          12           1          12          12           1
 AtmWgt=  14.0030740  15.9949146  15.9949146   1.0078250  12.0000000  12.0000000   1.0078250  12.0000000  12.0000000   1.0078250
 NucSpn=           2           0           0           1           0           0           1           0           0           1
 AtZEff=   0.0000000   0.0000000   0.0000000   0.0000000   0.0000000   0.0000000   0.0000000   0.0000000   0.0000000   0.0000000
 NQMom=    2.0440000   0.0000000   0.0000000   0.0000000   0.0000000   0.0000000   0.0000000   0.0000000   0.0000000   0.0000000
 NMagM=    0.4037610   0.0000000   0.0000000   2.7928460   0.0000000   0.0000000   2.7928460   0.0000000   0.0000000   2.7928460
 AtZNuc=   7.0000000   8.0000000   8.0000000   1.0000000   6.0000000   6.0000000   1.0000000   6.0000000   6.0000000   1.0000000

  Atom        41          42          43          44          45          46          47          48          49          50
 IAtWgt=          12           1          12           1          12           1          12          12           1          12
 AtmWgt=  12.0000000   1.0078250  12.0000000   1.0078250  12.0000000   1.0078250  12.0000000  12.0000000   1.0078250  12.0000000
 NucSpn=           0           1           0           1           0           1           0           0           1           0
 AtZEff=   0.0000000   0.0000000   0.0000000   0.0000000   0.0000000   0.0000000   0.0000000   0.0000000   0.0000000   0.0000000
 NQMom=    0.0000000   0.0000000   0.0000000   0.0000000   0.0000000   0.0000000   0.0000000   0.0000000   0.0000000   0.0000000
 NMagM=    0.0000000   2.7928460   0.0000000   2.7928460   0.0000000   2.7928460   0.0000000   0.0000000   2.7928460   0.0000000
 AtZNuc=   6.0000000   1.0000000   6.0000000   1.0000000   6.0000000   1.0000000   6.0000000   6.0000000   1.0000000   6.0000000

  Atom        51          52          53          54          55          56          57          58          59          60
 IAtWgt=           1          16          16          16          32          16           1           1          16           1
 AtmWgt=   1.0078250  15.9949146  15.9949146  15.9949146  31.9720718  15.9949146   1.0078250   1.0078250  15.9949146   1.0078250
 NucSpn=           1           0           0           0           0           0           1           1           0           1
 AtZEff=   0.0000000   0.0000000   0.0000000   0.0000000   0.0000000   0.0000000   0.0000000   0.0000000   0.0000000   0.0000000
 NQMom=    0.0000000   0.0000000   0.0000000   0.0000000   0.0000000   0.0000000   0.0000000   0.0000000   0.0000000   0.0000000
 NMagM=    2.7928460   0.0000000   0.0000000   0.0000000   0.0000000   0.0000000   2.7928460   2.7928460   0.0000000   2.7928460
 AtZNuc=   1.0000000   8.0000000   8.0000000   8.0000000  16.0000000   8.0000000   1.0000000   1.0000000   8.0000000   1.0000000

  Atom        61
 IAtWgt=           1
 AtmWgt=   1.0078250
 NucSpn=           1
 AtZEff=   0.0000000
 NQMom=    0.0000000
 NMagM=    2.7928460
 AtZNuc=   1.0000000
 Using perturbation frequencies:    0.000000    0.072000
 Leave Link  101 at Wed Jan 13 17:55:32 2021, MaxMem=  6442450944 cpu:         2.4
 (Enter /usr/local/bin/G09/G09d//g09/l106.exe)
 Differentiate once with respect to electric field.
 Nuclear step= 0.001000 Angstroms, electric field step= 0.000333 atomic units, NStep=1.
 Leave Link  106 at Wed Jan 13 17:55:32 2021, MaxMem=  6442450944 cpu:         0.0
 (Enter /usr/local/bin/G09/G09d//g09/l202.exe)
 Symmetry turned off by external request.
 Stoichiometry    C25H27NO7S
 Framework group  C1[X(C25H27NO7S)]
 Deg. of freedom   177
 Full point group                 C1      NOp   1
                          Input orientation:                          
 ---------------------------------------------------------------------
 Center     Atomic      Atomic             Coordinates (Angstroms)
 Number     Number       Type             X           Y           Z
 ---------------------------------------------------------------------
      1          6           0        4.981328    0.071552   10.993252
      2          1           0        5.237190   -0.321152   11.796859
      3          6           0        3.721703   -0.115648   10.538604
      4          1           0        3.115443   -0.622336   11.027606
      5          6           0        3.348624    0.456768    9.338043
      6          1           0        2.486605    0.336960    9.009138
      7          6           0        4.260512    1.200576    8.637825
      8          1           0        4.008560    1.584128    7.828959
      9          6           0        5.554116    1.395680    9.108582
     10          6           0        6.571241    2.139654    8.393078
     11          1           0        7.424292    2.184832    8.762582
     12          6           0        6.352534    2.762240    7.236733
     13          1           0        5.487633    2.713152    6.900267
     14          6           0        7.313628    3.510208    6.440030
     15          6           0        6.859881    4.162080    5.285657
     16          1           0        5.964942    4.086784    5.044526
     17          6           0        7.706735    4.910298    4.500788
     18          6           0        9.054207    5.005312    4.845144
     19          6           0        9.516534    4.350528    5.975355
     20          1           0       10.415511    4.407104    6.204980
     21          6           0        8.656140    3.617536    6.763017
     22          1           0        8.980968    3.189056    7.521586
     23          6           0        7.209337    0.995072   10.903999
     24          1           0        7.243593    0.545792   11.752479
     25          1           0        7.874112    0.624832   10.319170
     26          1           0        7.379610    1.931072   11.030893
     27          6           0       11.211774    5.821504    4.267876
     28          1           0       11.572521    4.932928    4.304859
     29          1           0       11.643778    6.314048    3.566836
     30          1           0       11.360398    6.262464    5.106986
     31          7           0        5.874834    0.814528   10.306020
     32          8           0        7.303978    5.576563    3.386193
     33          8           0        9.824057    5.755027    4.009650
     34          1           0        6.491451    5.358080    3.188784
     35          6           0       11.625734    3.489158    8.897037
     36          6           0       11.799321    4.840243    8.824879
     37          1           0       11.333829    5.398848    9.405271
     38          6           0       12.684164    5.393856    7.871531
     39          6           0       12.895367    6.789120    7.750719
     40          1           0       12.443058    7.374848    8.313851
     41          6           0       13.756273    7.278336    6.816602
     42          1           0       13.881943    8.196864    6.744115
     43          6           0       14.450900    6.418048    5.966807
     44          1           0       15.035548    6.766656    5.332174
     45          6           0       14.279507    5.076032    6.059348
     46          1           0       14.754396    4.512768    5.493257
     47          6           0       13.388097    4.521920    7.004971
     48          6           0       13.186172    3.129984    7.116085
     49          1           0       13.649195    2.551744    6.553445
     50          6           0       12.324882    2.624128    8.035244
     51          1           0       12.196412    1.704768    8.095239
     52          8           0        9.413483    3.682848   10.235176
     53          8           0       11.304968    2.659072   11.327088
     54          8           0       10.131317    1.509414    9.570298
     55         16           0       10.537122    2.790195   10.108447
     56          8           0        3.560232    2.189824    5.300286
     57          1           0        4.022351    2.146560    4.620450
     58          1           0        3.325427    3.020160    5.397922
     59          8           0        4.825874    4.922944    2.761915
     60          1           0        4.705227    4.293120    2.368577
     61          1           0        4.096599    5.366400    2.843607
 ---------------------------------------------------------------------
 Rotational constants (GHZ):      0.1356477      0.0772839      0.0516543
 Leave Link  202 at Wed Jan 13 17:55:33 2021, MaxMem=  6442450944 cpu:         0.0
 (Enter /usr/local/bin/G09/G09d//g09/l301.exe)
 Standard basis: 6-311+G(d) (5D, 7F)
 Ernie: Thresh=  0.10000D-02 Tol=  0.10000D-05 Strict=F.
   837 basis functions,  1373 primitive gaussians,   871 cartesian basis functions
   128 alpha electrons      128 beta electrons
       nuclear repulsion energy      3776.8843146181 Hartrees.
 IExCor=  402 DFT=T Ex+Corr=B3LYP ExCW=0 ScaHFX=  0.200000
 ScaDFX=  0.800000  0.720000  1.000000  0.810000 ScalE2=  1.000000  1.000000
 IRadAn=      0 IRanWt=     -1 IRanGd=            0 ICorTp=0 IEmpDi=  4
 NAtoms=   61 NActive=   61 NUniq=   61 SFac= 1.00D+00 NAtFMM=   60 NAOKFM=T Big=T
 Integral buffers will be    131072 words long.
 Raffenetti 2 integral format.
 Two-electron integral symmetry is turned off.
 Leave Link  301 at Wed Jan 13 17:55:33 2021, MaxMem=  6442450944 cpu:         0.9
 (Enter /usr/local/bin/G09/G09d//g09/l302.exe)
 NPDir=0 NMtPBC=     1 NCelOv=     1 NCel=       1 NClECP=     1 NCelD=      1
         NCelK=      1 NCelE2=     1 NClLst=     1 CellRange=     0.0.
 One-electron integrals computed using PRISM.
 NBasis=   837 RedAO= T EigKep=  1.14D-06  NBF=   837
 NBsUse=   827 1.00D-06 EigRej=  8.99D-07 NBFU=   827
 Precomputing XC quadrature grid using
 IXCGrd= 4 IRadAn=           0 IRanWt=          -1 IRanGd=           0 AccXCQ= 0.00D+00.
 Generated NRdTot=       0 NPtTot=           0 NUsed=           0 NTot=          32
 NSgBfM=   853   853   853   853   853 MxSgAt=    61 MxSgA2=    61.
 Leave Link  302 at Wed Jan 13 17:55:36 2021, MaxMem=  6442450944 cpu:        20.3
 (Enter /usr/local/bin/G09/G09d//g09/l303.exe)
 DipDrv:  MaxL=1.
 Leave Link  303 at Wed Jan 13 17:55:37 2021, MaxMem=  6442450944 cpu:         2.4
 (Enter /usr/local/bin/G09/G09d//g09/l401.exe)
 ExpMin= 4.05D-02 ExpMax= 9.34D+04 ExpMxC= 3.17D+03 IAcc=2 IRadAn=         4 AccDes= 0.00D+00
 Harris functional with IExCor=  402 and IRadAn=       4 diagonalized for initial guess.
 HarFok:  IExCor=  402 AccDes= 0.00D+00 IRadAn=         4 IDoV= 1 UseB2=F ITyADJ=14
 ICtDFT=  3500011 ScaDFX=  1.000000  1.000000  1.000000  1.000000
 FoFCou: FMM=F IPFlag=           0 FMFlag=      100000 FMFlg1=        2001
         NFxFlg=           0 DoJE=T BraDBF=F KetDBF=T FulRan=T
         wScrn=  0.000000 ICntrl=     500 IOpCl=  0 I1Cent=   200000004 NGrid=           0
         NMat0=    1 NMatS0=      1 NMatT0=    0 NMatD0=    1 NMtDS0=    0 NMtDT0=    0
 Symmetry not used in FoFCou.
 Harris En= -1948.71734161601    
 JPrj=0 DoOrth=F DoCkMO=F.
 Leave Link  401 at Wed Jan 13 17:55:44 2021, MaxMem=  6442450944 cpu:        59.3
 (Enter /usr/local/bin/G09/G09d//g09/l502.exe)
 Closed shell SCF:
 Using DIIS extrapolation, IDIIS=  1040.
 Two-electron integral symmetry not used.
 IVT=     2306789 IEndB=     2306789 NGot=  6442450944 MDV=  6440920308
 LenX=  6440920308 LenY=  6440160796
 Requested convergence on RMS density matrix=1.00D-08 within 128 cycles.
 Requested convergence on MAX density matrix=1.00D-06.
 Requested convergence on             energy=1.00D-06.
 No special actions if energy rises.
 Fock matrices will be formed incrementally for  20 cycles.

 Cycle   1  Pass 1  IDiag  1:
 FoFJK:  IHMeth= 1 ICntrl=       0 DoSepK=F KAlg= 0 I1Cent=   0 FoldK=F
 IRaf= 800000000 NMat=   1 IRICut=       1 DoRegI=T DoRafI=F ISym2E= 0.
 FoFCou: FMM=T IPFlag=           0 FMFlag=      100000 FMFlg1=        2001
         NFxFlg=           0 DoJE=F BraDBF=F KetDBF=F FulRan=T
         wScrn=  0.000000 ICntrl=       0 IOpCl=  0 I1Cent=           0 NGrid=           0
         NMat0=    1 NMatS0=      1 NMatT0=    0 NMatD0=    1 NMtDS0=    0 NMtDT0=    0
 Symmetry not used in FoFCou.
 FMM levels:  10  Number of levels for PrismC:   9
 E= -1946.80724037974    
 DIIS: error= 4.80D-02 at cycle   1 NSaved=   1.
 NSaved= 1 IEnMin= 1 EnMin= -1946.80724037974     IErMin= 1 ErrMin= 4.80D-02
 ErrMax= 4.80D-02  0.00D+00 EMaxC= 1.00D-01 BMatC= 1.81D+00 BMatP= 1.81D+00
 IDIUse=3 WtCom= 5.20D-01 WtEn= 4.80D-01
 Coeff-Com:  0.100D+01
 Coeff-En:   0.100D+01
 Coeff:      0.100D+01
 Gap=     0.096 Goal=   None    Shift=    0.000
 GapD=    0.096 DampG=0.500 DampE=0.500 DampFc=0.2500 IDamp=-1.
 Damping current iteration by 2.50D-01
 RMSDP=1.19D-01 MaxDP=2.27D+01              OVMax= 8.13D-01

 Cycle   2  Pass 1  IDiag  1:
 RMSU=  2.49D-02    CP:  1.20D+00
 E= -1947.23558466246     Delta-E=       -0.428344282723 Rises=F Damp=T
 DIIS: error= 1.56D-02 at cycle   2 NSaved=   2.
 NSaved= 2 IEnMin= 2 EnMin= -1947.23558466246     IErMin= 2 ErrMin= 1.56D-02
 ErrMax= 1.56D-02  0.00D+00 EMaxC= 1.00D-01 BMatC= 4.00D-01 BMatP= 1.81D+00
 IDIUse=3 WtCom= 8.44D-01 WtEn= 1.56D-01
 Coeff-Com: -0.567D+00 0.157D+01
 Coeff-En:   0.000D+00 0.100D+01
 Coeff:     -0.479D+00 0.148D+01
 Gap=     0.352 Goal=   None    Shift=    0.000
 RMSDP=1.87D-02 MaxDP=2.13D+00 DE=-4.28D-01 OVMax= 9.16D-01

 Cycle   3  Pass 1  IDiag  1:
 RMSU=  1.50D-02    CP:  1.19D+00  5.51D-01
 E= -1947.82502755517     Delta-E=       -0.589442892709 Rises=F Damp=F
 DIIS: error= 3.09D-02 at cycle   3 NSaved=   3.
 NSaved= 3 IEnMin= 3 EnMin= -1947.82502755517     IErMin= 2 ErrMin= 1.56D-02
 ErrMax= 3.09D-02  0.00D+00 EMaxC= 1.00D-01 BMatC= 3.53D-01 BMatP= 4.00D-01
 IDIUse=3 WtCom= 6.91D-01 WtEn= 3.09D-01
 Coeff-Com: -0.426D+00 0.998D+00 0.428D+00
 Coeff-En:   0.000D+00 0.000D+00 0.100D+01
 Coeff:     -0.294D+00 0.689D+00 0.605D+00
 Gap=     0.191 Goal=   None    Shift=    0.000
 RMSDP=2.00D-02 MaxDP=1.90D+00 DE=-5.89D-01 OVMax= 2.32D-01

 Cycle   4  Pass 1  IDiag  1:
 RMSU=  1.54D-02    CP:  1.23D+00  8.97D-01  4.03D-01
 E= -1948.11086172510     Delta-E=       -0.285834169928 Rises=F Damp=F
 DIIS: error= 1.21D-02 at cycle   4 NSaved=   4.
 NSaved= 4 IEnMin= 4 EnMin= -1948.11086172510     IErMin= 4 ErrMin= 1.21D-02
 ErrMax= 1.21D-02  0.00D+00 EMaxC= 1.00D-01 BMatC= 7.39D-02 BMatP= 3.53D-01
 IDIUse=3 WtCom= 8.79D-01 WtEn= 1.21D-01
 Coeff-Com: -0.155D+00 0.361D+00 0.327D+00 0.467D+00
 Coeff-En:   0.000D+00 0.000D+00 0.126D+00 0.874D+00
 Coeff:     -0.136D+00 0.317D+00 0.303D+00 0.517D+00
 Gap=     0.094 Goal=   None    Shift=    0.000
 RMSDP=7.24D-03 MaxDP=9.17D-01 DE=-2.86D-01 OVMax= 1.27D-01

 Cycle   5  Pass 1  IDiag  1:
 RMSU=  3.67D-03    CP:  1.19D+00  8.15D-01  5.34D-01  6.93D-01
 E= -1948.15736075530     Delta-E=       -0.046499030195 Rises=F Damp=F
 DIIS: error= 7.60D-03 at cycle   5 NSaved=   5.
 NSaved= 5 IEnMin= 5 EnMin= -1948.15736075530     IErMin= 5 ErrMin= 7.60D-03
 ErrMax= 7.60D-03  0.00D+00 EMaxC= 1.00D-01 BMatC= 1.56D-02 BMatP= 7.39D-02
 IDIUse=3 WtCom= 9.24D-01 WtEn= 7.60D-02
 Coeff-Com: -0.598D-01 0.115D+00 0.119D+00 0.344D+00 0.482D+00
 Coeff-En:   0.000D+00 0.000D+00 0.000D+00 0.223D+00 0.777D+00
 Coeff:     -0.553D-01 0.106D+00 0.110D+00 0.334D+00 0.505D+00
 Gap=     0.078 Goal=   None    Shift=    0.000
 RMSDP=3.05D-03 MaxDP=3.83D-01 DE=-4.65D-02 OVMax= 5.56D-02

 Cycle   6  Pass 1  IDiag  1:
 RMSU=  1.58D-03    CP:  1.20D+00  8.84D-01  4.55D-01  7.81D-01  8.71D-01
 E= -1948.17138681405     Delta-E=       -0.014026058758 Rises=F Damp=F
 DIIS: error= 1.61D-03 at cycle   6 NSaved=   6.
 NSaved= 6 IEnMin= 6 EnMin= -1948.17138681405     IErMin= 6 ErrMin= 1.61D-03
 ErrMax= 1.61D-03  0.00D+00 EMaxC= 1.00D-01 BMatC= 1.24D-03 BMatP= 1.56D-02
 IDIUse=3 WtCom= 9.84D-01 WtEn= 1.61D-02
 Coeff-Com: -0.168D-01 0.226D-01 0.800D-02 0.104D+00 0.303D+00 0.579D+00
 Coeff-En:   0.000D+00 0.000D+00 0.000D+00 0.000D+00 0.785D-02 0.992D+00
 Coeff:     -0.166D-01 0.223D-01 0.787D-02 0.102D+00 0.298D+00 0.586D+00
 Gap=     0.074 Goal=   None    Shift=    0.000
 RMSDP=1.08D-03 MaxDP=9.89D-02 DE=-1.40D-02 OVMax= 9.63D-03

 Cycle   7  Pass 1  IDiag  1:
 RMSU=  5.76D-04    CP:  1.20D+00  8.97D-01  4.44D-01  8.29D-01  9.12D-01
                    CP:  8.10D-01
 E= -1948.17239369786     Delta-E=       -0.001006883802 Rises=F Damp=F
 DIIS: error= 4.79D-04 at cycle   7 NSaved=   7.
 NSaved= 7 IEnMin= 7 EnMin= -1948.17239369786     IErMin= 7 ErrMin= 4.79D-04
 ErrMax= 4.79D-04  0.00D+00 EMaxC= 1.00D-01 BMatC= 1.42D-04 BMatP= 1.24D-03
 IDIUse=3 WtCom= 9.95D-01 WtEn= 4.79D-03
 Coeff-Com: -0.381D-02 0.311D-02-0.101D-01 0.562D-02 0.973D-01 0.337D+00
 Coeff-Com:  0.571D+00
 Coeff-En:   0.000D+00 0.000D+00 0.000D+00 0.000D+00 0.000D+00 0.511D-01
 Coeff-En:   0.949D+00
 Coeff:     -0.379D-02 0.310D-02-0.100D-01 0.559D-02 0.969D-01 0.336D+00
 Coeff:      0.573D+00
 Gap=     0.075 Goal=   None    Shift=    0.000
 RMSDP=3.76D-04 MaxDP=4.51D-02 DE=-1.01D-03 OVMax= 3.33D-03

 Cycle   8  Pass 1  IDiag  1:
 RMSU=  1.64D-04    CP:  1.20D+00  8.99D-01  4.45D-01  8.16D-01  9.58D-01
                    CP:  8.80D-01  7.89D-01
 E= -1948.17251213092     Delta-E=       -0.000118433068 Rises=F Damp=F
 DIIS: error= 1.26D-04 at cycle   8 NSaved=   8.
 NSaved= 8 IEnMin= 8 EnMin= -1948.17251213092     IErMin= 8 ErrMin= 1.26D-04
 ErrMax= 1.26D-04  0.00D+00 EMaxC= 1.00D-01 BMatC= 8.19D-06 BMatP= 1.42D-04
 IDIUse=3 WtCom= 9.99D-01 WtEn= 1.26D-03
 Coeff-Com: -0.869D-03 0.750D-03-0.434D-02-0.456D-02 0.240D-01 0.108D+00
 Coeff-Com:  0.265D+00 0.612D+00
 Coeff-En:   0.000D+00 0.000D+00 0.000D+00 0.000D+00 0.000D+00 0.000D+00
 Coeff-En:   0.000D+00 0.100D+01
 Coeff:     -0.868D-03 0.749D-03-0.433D-02-0.456D-02 0.240D-01 0.108D+00
 Coeff:      0.265D+00 0.612D+00
 Gap=     0.076 Goal=   None    Shift=    0.000
 RMSDP=7.36D-05 MaxDP=6.49D-03 DE=-1.18D-04 OVMax= 1.07D-03

 Cycle   9  Pass 1  IDiag  1:
 RMSU=  5.53D-05    CP:  1.20D+00  8.99D-01  4.45D-01  8.16D-01  9.48D-01
                    CP:  8.83D-01  7.79D-01  8.25D-01
 E= -1948.17251907408     Delta-E=       -0.000006943162 Rises=F Damp=F
 DIIS: error= 3.67D-05 at cycle   9 NSaved=   9.
 NSaved= 9 IEnMin= 9 EnMin= -1948.17251907408     IErMin= 9 ErrMin= 3.67D-05
 ErrMax= 3.67D-05  0.00D+00 EMaxC= 1.00D-01 BMatC= 1.68D-06 BMatP= 8.19D-06
 IDIUse=1 WtCom= 1.00D+00 WtEn= 0.00D+00
 Coeff-Com: -0.181D-03 0.309D-03-0.127D-02-0.316D-02 0.347D-02 0.228D-01
 Coeff-Com:  0.862D-01 0.355D+00 0.537D+00
 Coeff:     -0.181D-03 0.309D-03-0.127D-02-0.316D-02 0.347D-02 0.228D-01
 Coeff:      0.862D-01 0.355D+00 0.537D+00
 Gap=     0.076 Goal=   None    Shift=    0.000
 RMSDP=3.09D-05 MaxDP=2.50D-03 DE=-6.94D-06 OVMax= 3.49D-04

 Cycle  10  Pass 1  IDiag  1:
 RMSU=  1.50D-05    CP:  1.20D+00  8.99D-01  4.46D-01  8.17D-01  9.52D-01
                    CP:  8.75D-01  8.00D-01  8.31D-01  8.06D-01
 E= -1948.17252049246     Delta-E=       -0.000001418372 Rises=F Damp=F
 DIIS: error= 1.37D-05 at cycle  10 NSaved=  10.
 NSaved=10 IEnMin=10 EnMin= -1948.17252049246     IErMin=10 ErrMin= 1.37D-05
 ErrMax= 1.37D-05  0.00D+00 EMaxC= 1.00D-01 BMatC= 1.73D-07 BMatP= 1.68D-06
 IDIUse=1 WtCom= 1.00D+00 WtEn= 0.00D+00
 Coeff-Com: -0.437D-04 0.145D-03-0.168D-03-0.101D-02-0.564D-03-0.127D-02
 Coeff-Com:  0.139D-01 0.121D+00 0.293D+00 0.576D+00
 Coeff:     -0.437D-04 0.145D-03-0.168D-03-0.101D-02-0.564D-03-0.127D-02
 Coeff:      0.139D-01 0.121D+00 0.293D+00 0.576D+00
 Gap=     0.076 Goal=   None    Shift=    0.000
 RMSDP=1.40D-05 MaxDP=1.89D-03 DE=-1.42D-06 OVMax= 9.05D-05

 Cycle  11  Pass 1  IDiag  1:
 RMSU=  6.18D-06    CP:  1.20D+00  8.99D-01  4.45D-01  8.17D-01  9.51D-01
                    CP:  8.78D-01  7.94D-01  8.46D-01  8.77D-01  7.09D-01
 E= -1948.17252062524     Delta-E=       -0.000000132783 Rises=F Damp=F
 DIIS: error= 7.15D-06 at cycle  11 NSaved=  11.
 NSaved=11 IEnMin=11 EnMin= -1948.17252062524     IErMin=11 ErrMin= 7.15D-06
 ErrMax= 7.15D-06  0.00D+00 EMaxC= 1.00D-01 BMatC= 2.87D-08 BMatP= 1.73D-07
 IDIUse=1 WtCom= 1.00D+00 WtEn= 0.00D+00
 Coeff-Com: -0.265D-04 0.704D-04 0.499D-04-0.126D-03-0.564D-03-0.385D-02
 Coeff-Com: -0.379D-02 0.196D-01 0.877D-01 0.331D+00 0.570D+00
 Coeff:     -0.265D-04 0.704D-04 0.499D-04-0.126D-03-0.564D-03-0.385D-02
 Coeff:     -0.379D-02 0.196D-01 0.877D-01 0.331D+00 0.570D+00
 Gap=     0.076 Goal=   None    Shift=    0.000
 RMSDP=5.25D-06 MaxDP=6.08D-04 DE=-1.33D-07 OVMax= 1.07D-04

 Cycle  12  Pass 1  IDiag  1:
 RMSU=  1.93D-06    CP:  1.20D+00  8.99D-01  4.45D-01  8.17D-01  9.51D-01
                    CP:  8.77D-01  7.97D-01  8.48D-01  8.52D-01  7.78D-01
                    CP:  8.11D-01
 E= -1948.17252064683     Delta-E=       -0.000000021587 Rises=F Damp=F
 DIIS: error= 2.88D-06 at cycle  12 NSaved=  12.
 NSaved=12 IEnMin=12 EnMin= -1948.17252064683     IErMin=12 ErrMin= 2.88D-06
 ErrMax= 2.88D-06  0.00D+00 EMaxC= 1.00D-01 BMatC= 5.00D-09 BMatP= 2.87D-08
 IDIUse=1 WtCom= 1.00D+00 WtEn= 0.00D+00
 Coeff-Com: -0.781D-05 0.153D-04 0.414D-04 0.349D-04-0.302D-03-0.255D-02
 Coeff-Com: -0.463D-02-0.412D-02 0.162D-01 0.135D+00 0.360D+00 0.501D+00
 Coeff:     -0.781D-05 0.153D-04 0.414D-04 0.349D-04-0.302D-03-0.255D-02
 Coeff:     -0.463D-02-0.412D-02 0.162D-01 0.135D+00 0.360D+00 0.501D+00
 Gap=     0.076 Goal=   None    Shift=    0.000
 RMSDP=2.46D-06 MaxDP=3.03D-04 DE=-2.16D-08 OVMax= 2.89D-05

 Cycle  13  Pass 1  IDiag  1:
 RMSU=  7.09D-07    CP:  1.20D+00  8.99D-01  4.45D-01  8.17D-01  9.51D-01
                    CP:  8.77D-01  7.96D-01  8.50D-01  8.69D-01  7.88D-01
                    CP:  8.37D-01  5.39D-01
 E= -1948.17252065152     Delta-E=       -0.000000004690 Rises=F Damp=F
 DIIS: error= 7.13D-07 at cycle  13 NSaved=  13.
 NSaved=13 IEnMin=13 EnMin= -1948.17252065152     IErMin=13 ErrMin= 7.13D-07
 ErrMax= 7.13D-07  0.00D+00 EMaxC= 1.00D-01 BMatC= 2.42D-10 BMatP= 5.00D-09
 IDIUse=1 WtCom= 1.00D+00 WtEn= 0.00D+00
 Coeff-Com: -0.915D-06-0.876D-06 0.992D-05 0.233D-04-0.478D-04-0.723D-03
 Coeff-Com: -0.152D-02-0.378D-02-0.319D-02 0.196D-01 0.917D-01 0.214D+00
 Coeff-Com:  0.684D+00
 Coeff:     -0.915D-06-0.876D-06 0.992D-05 0.233D-04-0.478D-04-0.723D-03
 Coeff:     -0.152D-02-0.378D-02-0.319D-02 0.196D-01 0.917D-01 0.214D+00
 Coeff:      0.684D+00
 Gap=     0.076 Goal=   None    Shift=    0.000
 RMSDP=3.63D-07 MaxDP=3.56D-05 DE=-4.69D-09 OVMax= 1.26D-05

 Cycle  14  Pass 1  IDiag  1:
 RMSU=  2.41D-07    CP:  1.20D+00  8.99D-01  4.45D-01  8.17D-01  9.51D-01
                    CP:  8.77D-01  7.96D-01  8.49D-01  8.69D-01  7.93D-01
                    CP:  8.51D-01  5.77D-01  8.62D-01
 E= -1948.17252065230     Delta-E=       -0.000000000781 Rises=F Damp=F
 DIIS: error= 3.49D-07 at cycle  14 NSaved=  14.
 NSaved=14 IEnMin=14 EnMin= -1948.17252065230     IErMin=14 ErrMin= 3.49D-07
 ErrMax= 3.49D-07  0.00D+00 EMaxC= 1.00D-01 BMatC= 6.81D-11 BMatP= 2.42D-10
 IDIUse=1 WtCom= 1.00D+00 WtEn= 0.00D+00
 Coeff-Com: -0.620D-07-0.738D-06 0.281D-05 0.801D-05 0.356D-05-0.172D-03
 Coeff-Com: -0.417D-03-0.171D-02-0.354D-02-0.293D-02 0.152D-01 0.676D-01
 Coeff-Com:  0.415D+00 0.511D+00
 Coeff:     -0.620D-07-0.738D-06 0.281D-05 0.801D-05 0.356D-05-0.172D-03
 Coeff:     -0.417D-03-0.171D-02-0.354D-02-0.293D-02 0.152D-01 0.676D-01
 Coeff:      0.415D+00 0.511D+00
 Gap=     0.076 Goal=   None    Shift=    0.000
 RMSDP=1.44D-07 MaxDP=1.78D-05 DE=-7.81D-10 OVMax= 3.19D-06

 Cycle  15  Pass 1  IDiag  1:
 RMSU=  7.38D-08    CP:  1.20D+00  8.99D-01  4.45D-01  8.17D-01  9.51D-01
                    CP:  8.77D-01  7.96D-01  8.49D-01  8.69D-01  7.93D-01
                    CP:  8.54D-01  5.88D-01  9.13D-01  8.17D-01
 E= -1948.17252065184     Delta-E=        0.000000000458 Rises=F Damp=F
 DIIS: error= 1.38D-07 at cycle  15 NSaved=  15.
 NSaved=15 IEnMin=14 EnMin= -1948.17252065230     IErMin=15 ErrMin= 1.38D-07
 ErrMax= 1.38D-07  0.00D+00 EMaxC= 1.00D-01 BMatC= 6.78D-12 BMatP= 6.81D-11
 IDIUse=1 WtCom= 1.00D+00 WtEn= 0.00D+00
 Coeff-Com:  0.250D-06-0.449D-06 0.924D-06 0.169D-05 0.777D-05-0.130D-04
 Coeff-Com: -0.672D-04-0.536D-03-0.171D-02-0.416D-02-0.223D-02 0.117D-01
 Coeff-Com:  0.153D+00 0.292D+00 0.551D+00
 Coeff:      0.250D-06-0.449D-06 0.924D-06 0.169D-05 0.777D-05-0.130D-04
 Coeff:     -0.672D-04-0.536D-03-0.171D-02-0.416D-02-0.223D-02 0.117D-01
 Coeff:      0.153D+00 0.292D+00 0.551D+00
 Gap=     0.076 Goal=   None    Shift=    0.000
 RMSDP=6.99D-08 MaxDP=1.07D-05 DE= 4.58D-10 OVMax= 1.14D-06

 Cycle  16  Pass 1  IDiag  1:
 RMSU=  3.29D-08    CP:  1.20D+00  8.99D-01  4.45D-01  8.17D-01  9.51D-01
                    CP:  8.77D-01  7.96D-01  8.49D-01  8.69D-01  7.93D-01
                    CP:  8.55D-01  5.84D-01  9.30D-01  8.05D-01  7.52D-01
 E= -1948.17252065175     Delta-E=        0.000000000087 Rises=F Damp=F
 DIIS: error= 4.89D-08 at cycle  16 NSaved=  16.
 NSaved=16 IEnMin=14 EnMin= -1948.17252065230     IErMin=16 ErrMin= 4.89D-08
 ErrMax= 4.89D-08  0.00D+00 EMaxC= 1.00D-01 BMatC= 1.34D-12 BMatP= 6.78D-12
 IDIUse=1 WtCom= 1.00D+00 WtEn= 0.00D+00
 Coeff-Com:  0.252D-06-0.303D-06 0.276D-06 0.710D-07 0.525D-05 0.155D-04
 Coeff-Com:  0.129D-04-0.105D-03-0.617D-03-0.229D-02-0.336D-02-0.118D-02
 Coeff-Com:  0.463D-01 0.122D+00 0.358D+00 0.481D+00
 Coeff:      0.252D-06-0.303D-06 0.276D-06 0.710D-07 0.525D-05 0.155D-04
 Coeff:      0.129D-04-0.105D-03-0.617D-03-0.229D-02-0.336D-02-0.118D-02
 Coeff:      0.463D-01 0.122D+00 0.358D+00 0.481D+00
 Gap=     0.076 Goal=   None    Shift=    0.000
 RMSDP=3.65D-08 MaxDP=5.89D-06 DE= 8.73D-11 OVMax= 4.15D-07

 Cycle  17  Pass 1  IDiag  1:
 RMSU=  1.34D-08    CP:  1.20D+00  8.99D-01  4.45D-01  8.17D-01  9.51D-01
                    CP:  8.77D-01  7.96D-01  8.49D-01  8.69D-01  7.93D-01
                    CP:  8.55D-01  5.84D-01  9.28D-01  8.26D-01  7.96D-01
                    CP:  7.69D-01
 E= -1948.17252065159     Delta-E=        0.000000000160 Rises=F Damp=F
 DIIS: error= 1.01D-08 at cycle  17 NSaved=  17.
 NSaved=17 IEnMin=14 EnMin= -1948.17252065230     IErMin=17 ErrMin= 1.01D-08
 ErrMax= 1.01D-08  0.00D+00 EMaxC= 1.00D-01 BMatC= 7.31D-14 BMatP= 1.34D-12
 IDIUse=1 WtCom= 1.00D+00 WtEn= 0.00D+00
 Coeff-Com:  0.169D-06-0.242D-06 0.654D-07 0.178D-07 0.223D-05 0.932D-05
 Coeff-Com:  0.120D-04-0.870D-05-0.155D-03-0.754D-03-0.136D-02-0.159D-02
 Coeff-Com:  0.869D-02 0.317D-01 0.125D+00 0.242D+00 0.596D+00
 Coeff:      0.169D-06-0.242D-06 0.654D-07 0.178D-07 0.223D-05 0.932D-05
 Coeff:      0.120D-04-0.870D-05-0.155D-03-0.754D-03-0.136D-02-0.159D-02
 Coeff:      0.869D-02 0.317D-01 0.125D+00 0.242D+00 0.596D+00
 Gap=     0.076 Goal=   None    Shift=    0.000
 RMSDP=1.42D-08 MaxDP=1.06D-06 DE= 1.60D-10 OVMax= 1.07D-07

 Cycle  18  Pass 1  IDiag  1:
 RMSU=  1.22D-08    CP:  1.20D+00  8.99D-01  4.45D-01  8.17D-01  9.51D-01
                    CP:  8.77D-01  7.96D-01  8.49D-01  8.69D-01  7.93D-01
                    CP:  8.55D-01  5.84D-01  9.26D-01  8.26D-01  8.19D-01
                    CP:  8.24D-01  9.04D-01
 E= -1948.17252065184     Delta-E=       -0.000000000248 Rises=F Damp=F
 DIIS: error= 4.53D-09 at cycle  18 NSaved=  18.
 NSaved=18 IEnMin=14 EnMin= -1948.17252065230     IErMin=18 ErrMin= 4.53D-09
 ErrMax= 4.53D-09  0.00D+00 EMaxC= 1.00D-01 BMatC= 1.90D-14 BMatP= 7.31D-14
 IDIUse=1 WtCom= 1.00D+00 WtEn= 0.00D+00
 Coeff-Com:  0.695D-07-0.928D-07 0.433D-07 0.733D-08 0.651D-06 0.365D-05
 Coeff-Com:  0.609D-05 0.119D-04-0.234D-05-0.141D-03-0.374D-03-0.877D-03
 Coeff-Com: -0.139D-02 0.119D-02 0.251D-01 0.810D-01 0.376D+00 0.520D+00
 Coeff:      0.695D-07-0.928D-07 0.433D-07 0.733D-08 0.651D-06 0.365D-05
 Coeff:      0.609D-05 0.119D-04-0.234D-05-0.141D-03-0.374D-03-0.877D-03
 Coeff:     -0.139D-02 0.119D-02 0.251D-01 0.810D-01 0.376D+00 0.520D+00
 Gap=     0.076 Goal=   None    Shift=    0.000
 RMSDP=1.82D-08 MaxDP=1.75D-06 DE=-2.48D-10 OVMax= 4.70D-08

 Cycle  19  Pass 1  IDiag  1:
 RMSU=  1.19D-08    CP:  1.20D+00  8.99D-01  4.45D-01  8.17D-01  9.51D-01
                    CP:  8.77D-01  7.96D-01  8.49D-01  8.69D-01  7.93D-01
                    CP:  8.55D-01  5.84D-01  9.24D-01  8.27D-01  8.59D-01
                    CP:  9.57D-01  1.22D+00  1.81D+00
 E= -1948.17252065168     Delta-E=        0.000000000159 Rises=F Damp=F
 DIIS: error= 2.21D-09 at cycle  19 NSaved=  19.
 NSaved=19 IEnMin=14 EnMin= -1948.17252065230     IErMin=19 ErrMin= 2.21D-09
 ErrMax= 2.21D-09  0.00D+00 EMaxC= 1.00D-01 BMatC= 2.12D-15 BMatP= 1.90D-14
 IDIUse=1 WtCom= 1.00D+00 WtEn= 0.00D+00
 Large coefficients: NSaved= 19 BigCof=    0.00 CofMax=   10.00 Det=-3.73D-15
 Inversion failed.  Reducing to 18 matrices.
 Coeff-Com:  0.149D-07 0.433D-07 0.502D-07 0.293D-06 0.133D-05 0.250D-05
 Coeff-Com:  0.742D-05 0.143D-04 0.317D-05-0.478D-04-0.306D-03-0.156D-02
 Coeff-Com: -0.272D-02 0.137D-02 0.215D-01 0.153D+00 0.299D+00 0.529D+00
 Coeff:      0.149D-07 0.433D-07 0.502D-07 0.293D-06 0.133D-05 0.250D-05
 Coeff:      0.742D-05 0.143D-04 0.317D-05-0.478D-04-0.306D-03-0.156D-02
 Coeff:     -0.272D-02 0.137D-02 0.215D-01 0.153D+00 0.299D+00 0.529D+00
 Gap=     0.076 Goal=   None    Shift=    0.000
 RMSDP=2.49D-08 MaxDP=2.54D-06 DE= 1.59D-10 OVMax= 1.32D-08

 Cycle  20  Pass 1  IDiag  1:
 RMSU=  8.17D-09    CP:  1.20D+00  8.99D-01  4.45D-01  8.17D-01  9.51D-01
                    CP:  8.77D-01  7.96D-01  8.49D-01  8.69D-01  7.93D-01
                    CP:  8.54D-01  5.85D-01  9.21D-01  8.27D-01  8.92D-01
                    CP:  1.06D+00  1.51D+00  3.00D+00  2.31D+00
 E= -1948.17252065159     Delta-E=        0.000000000094 Rises=F Damp=F
 DIIS: error= 3.96D-09 at cycle  20 NSaved=  19.
 NSaved=19 IEnMin=13 EnMin= -1948.17252065230     IErMin=18 ErrMin= 2.21D-09
 ErrMax= 3.96D-09  0.00D+00 EMaxC= 1.00D-01 BMatC= 3.17D-15 BMatP= 2.12D-15
 IDIUse=1 WtCom= 1.00D+00 WtEn= 0.00D+00
 Large coefficients: NSaved= 19 BigCof=    0.00 CofMax=   10.00 Det=-1.98D-15
 Inversion failed.  Reducing to 18 matrices.
 Large coefficients: NSaved= 18 BigCof=    0.00 CofMax=   10.00 Det=-2.01D-15
 Inversion failed.  Reducing to 17 matrices.
 Large coefficients: NSaved= 17 BigCof=    0.00 CofMax=   10.00 Det=-2.01D-15
 Inversion failed.  Reducing to 16 matrices.
 Large coefficients: NSaved= 16 BigCof=    0.00 CofMax=   10.00 Det=-2.02D-15
 Inversion failed.  Reducing to 15 matrices.
 Coeff-Com:  0.371D-06 0.137D-05 0.920D-05 0.358D-04 0.105D-03 0.137D-03
 Coeff-Com: -0.125D-03-0.301D-02-0.739D-02-0.139D-01-0.264D-02 0.112D+00
 Coeff-Com:  0.289D+00 0.657D+00-0.311D-01
 Coeff:      0.371D-06 0.137D-05 0.920D-05 0.358D-04 0.105D-03 0.137D-03
 Coeff:     -0.125D-03-0.301D-02-0.739D-02-0.139D-01-0.264D-02 0.112D+00
 Coeff:      0.289D+00 0.657D+00-0.311D-01
 Gap=     0.076 Goal=   None    Shift=    0.000
 RMSDP=4.27D-09 MaxDP=4.18D-07 DE= 9.37D-11 OVMax= 2.99D-09

 SCF Done:  E(RB3LYP) =  -1948.17252065     A.U. after   20 cycles
            NFock= 20  Conv=0.43D-08     -V/T= 1.9987
 KE= 1.950610958421D+03 PE=-1.212692112712D+04 EE= 4.451253333433D+03
 Leave Link  502 at Wed Jan 13 18:18:06 2021, MaxMem=  6442450944 cpu:     10726.6
 (Enter /usr/local/bin/G09/G09d//g09/l801.exe)
 DoSCS=F DFT=T ScalE2(SS,OS)=  1.000000  1.000000
 Range of M.O.s used for correlation:     1   827
 NBasis=   837 NAE=   128 NBE=   128 NFC=     0 NFV=     0
 NROrb=    827 NOA=   128 NOB=   128 NVA=   699 NVB=   699

 **** Warning!!: The largest alpha MO coefficient is  0.13771859D+03


 **** Warning!!: The smallest alpha delta epsilon is  0.75630609D-01

 Leave Link  801 at Wed Jan 13 18:18:07 2021, MaxMem=  6442450944 cpu:         0.8
 (Enter /usr/local/bin/G09/G09d//g09/l1002.exe)
 Minotr:  Closed shell wavefunction.
          Direct CPHF calculation.
          Differentiating once with respect to electric field.
                with respect to dipole field.
          Electric field/nuclear overlap derivatives assumed to be zero.
          Requested convergence is 1.0D-08 RMS, and 1.0D-07 maximum.
          NewPWx=F KeepS1=T KeepF1=T KeepIn=T MapXYZ=F SortEE=F KeepMc=T.
          MDV=    6442449625 using IRadAn=       1.
 Generate precomputed XC quadrature information.
          Solving linear equations separately, MaxMat=      72.
          Doing perturbations at frequencies    0.000000    0.072000    0.144000
          There are     9 degrees of freedom in the 1st order CPHF.  IDoFFX=0 NUNeed=     9.
 LinEq1:  Iter=  0 NonCon=     9 RMS=3.53D-01 Max=1.22D+02 NDo=     9
 AX will form     9 AO Fock derivatives at one time.
 FoFJK:  IHMeth= 1 ICntrl=       0 DoSepK=F KAlg= 0 I1Cent=   0 FoldK=F
 IRaf= 800000000 NMat=  18 IRICut=       1 DoRegI=T DoRafI=F ISym2E= 0.
 FoFCou: FMM=T IPFlag=           0 FMFlag=      100000 FMFlg1=        2001
         NFxFlg=           0 DoJE=F BraDBF=F KetDBF=F FulRan=T
         wScrn=  0.000000 ICntrl=       0 IOpCl=  0 I1Cent=           0 NGrid=           0
         NMat0=   18 NMatS0=      9 NMatT0=    0 NMatD0=   18 NMtDS0=    0 NMtDT0=    0
 Symmetry not used in FoFCou.
 FMM levels:  10  Number of levels for PrismC:   9
 LinEq1:  Iter=  1 NonCon=     9 RMS=5.96D-01 Max=2.01D+02 NDo=     9
 LinEq1:  Iter=  2 NonCon=     9 RMS=1.39D+00 Max=4.20D+02 NDo=     9
 LinEq1:  Iter=  3 NonCon=     9 RMS=4.32D+00 Max=9.83D+02 NDo=     9
 LinEq1:  Iter=  4 NonCon=     9 RMS=4.91D+00 Max=1.16D+03 NDo=     9
 LinEq1:  Iter=  5 NonCon=     9 RMS=1.01D+01 Max=2.19D+03 NDo=     9
 LinEq1:  Iter=  6 NonCon=     9 RMS=1.16D+01 Max=2.84D+03 NDo=     9
 LinEq1:  Iter=  7 NonCon=     9 RMS=3.68D+01 Max=9.58D+03 NDo=     9
 LinEq1:  Iter=  8 NonCon=     9 RMS=4.10D+01 Max=7.49D+03 NDo=     9
 LinEq1:  Iter=  9 NonCon=     9 RMS=9.64D+01 Max=2.33D+04 NDo=     9
 LinEq1:  Iter= 10 NonCon=     9 RMS=9.99D+01 Max=1.80D+04 NDo=     9
 LinEq1:  Iter= 11 NonCon=     9 RMS=1.07D+02 Max=2.29D+04 NDo=     9
 LinEq1:  Iter= 12 NonCon=     9 RMS=1.62D+02 Max=2.70D+04 NDo=     9
 LinEq1:  Iter= 13 NonCon=     9 RMS=1.90D+02 Max=5.39D+04 NDo=     9
 LinEq1:  Iter= 14 NonCon=     9 RMS=2.43D+02 Max=4.41D+04 NDo=     9
 LinEq1:  Iter= 15 NonCon=     9 RMS=2.48D+02 Max=3.77D+04 NDo=     9
 LinEq1:  Iter= 16 NonCon=     9 RMS=3.45D+02 Max=5.23D+04 NDo=     9
 LinEq1:  Iter= 17 NonCon=     9 RMS=3.95D+02 Max=7.06D+04 NDo=     9
 LinEq1:  Iter= 18 NonCon=     9 RMS=4.34D+02 Max=6.31D+04 NDo=     9
 LinEq1:  Iter= 19 NonCon=     9 RMS=4.45D+02 Max=5.60D+04 NDo=     9
 LinEq1:  Iter= 20 NonCon=     9 RMS=3.75D+02 Max=6.37D+04 NDo=     9
 LinEq1:  Iter= 21 NonCon=     9 RMS=3.33D+02 Max=5.47D+04 NDo=     9
 LinEq1:  Iter= 22 NonCon=     9 RMS=3.12D+02 Max=6.17D+04 NDo=     9
 LinEq1:  Iter= 23 NonCon=     9 RMS=2.96D+02 Max=6.03D+04 NDo=     9
 LinEq1:  Iter= 24 NonCon=     9 RMS=3.57D+02 Max=6.94D+04 NDo=     9
 LinEq1:  Iter= 25 NonCon=     9 RMS=3.14D+02 Max=7.23D+04 NDo=     9
 LinEq1:  Iter= 26 NonCon=     9 RMS=3.25D+02 Max=7.04D+04 NDo=     9
 LinEq1:  Iter= 27 NonCon=     9 RMS=3.07D+02 Max=5.24D+04 NDo=     9
 LinEq1:  Iter= 28 NonCon=     9 RMS=2.78D+02 Max=4.41D+04 NDo=     9
 LinEq1:  Iter= 29 NonCon=     9 RMS=2.22D+02 Max=2.82D+04 NDo=     9
 LinEq1:  Iter= 30 NonCon=     9 RMS=1.74D+02 Max=2.24D+04 NDo=     9
 LinEq1:  Iter= 31 NonCon=     9 RMS=1.37D+02 Max=1.83D+04 NDo=     9
 LinEq1:  Iter= 32 NonCon=     9 RMS=1.25D+02 Max=1.94D+04 NDo=     9
 LinEq1:  Iter= 33 NonCon=     9 RMS=1.24D+02 Max=2.75D+04 NDo=     9
 LinEq1:  Iter= 34 NonCon=     9 RMS=9.60D+01 Max=1.75D+04 NDo=     9
 LinEq1:  Iter= 35 NonCon=     9 RMS=7.60D+01 Max=1.60D+04 NDo=     9
 LinEq1:  Iter= 36 NonCon=     8 RMS=4.66D+01 Max=6.60D+03 NDo=     9
 LinEq1:  Iter= 37 NonCon=     6 RMS=4.10D+01 Max=4.19D+03 NDo=     8
 LinEq1:  Iter= 38 NonCon=     6 RMS=3.16D+01 Max=4.05D+03 NDo=     6
 LinEq1:  Iter= 39 NonCon=     6 RMS=2.61D+01 Max=2.85D+03 NDo=     6
 LinEq1:  Iter= 40 NonCon=     6 RMS=2.22D+01 Max=2.32D+03 NDo=     6
 LinEq1:  Iter= 41 NonCon=     6 RMS=1.92D+01 Max=1.77D+03 NDo=     6
 LinEq1:  Iter= 42 NonCon=     6 RMS=1.20D+01 Max=1.10D+03 NDo=     6
 LinEq1:  Iter= 43 NonCon=     6 RMS=9.64D+00 Max=9.21D+02 NDo=     6
 LinEq1:  Iter= 44 NonCon=     6 RMS=6.00D+00 Max=7.46D+02 NDo=     6
 LinEq1:  Iter= 45 NonCon=     6 RMS=5.23D+00 Max=7.34D+02 NDo=     6
 LinEq1:  Iter= 46 NonCon=     6 RMS=3.32D+00 Max=5.42D+02 NDo=     6
 LinEq1:  Iter= 47 NonCon=     6 RMS=2.04D+00 Max=2.70D+02 NDo=     6
 LinEq1:  Iter= 48 NonCon=     6 RMS=1.54D+00 Max=1.31D+02 NDo=     6
 LinEq1:  Iter= 49 NonCon=     6 RMS=1.04D+00 Max=1.06D+02 NDo=     6
 LinEq1:  Iter= 50 NonCon=     4 RMS=7.34D-01 Max=6.98D+01 NDo=     6
 LinEq1:  Iter= 51 NonCon=     3 RMS=5.81D-01 Max=6.75D+01 NDo=     4
 LinEq1:  Iter= 52 NonCon=     3 RMS=3.86D-01 Max=4.68D+01 NDo=     3
 LinEq1:  Iter= 53 NonCon=     3 RMS=1.91D-01 Max=2.90D+01 NDo=     3
 LinEq1:  Iter= 54 NonCon=     3 RMS=1.54D-01 Max=2.22D+01 NDo=     3
 LinEq1:  Iter= 55 NonCon=     3 RMS=9.62D-02 Max=1.31D+01 NDo=     3
 LinEq1:  Iter= 56 NonCon=     3 RMS=5.41D-02 Max=8.14D+00 NDo=     3
 LinEq1:  Iter= 57 NonCon=     3 RMS=3.78D-02 Max=6.31D+00 NDo=     3
 LinEq1:  Iter= 58 NonCon=     3 RMS=2.66D-02 Max=4.44D+00 NDo=     3
 LinEq1:  Iter= 59 NonCon=     3 RMS=1.48D-02 Max=2.16D+00 NDo=     3
 LinEq1:  Iter= 60 NonCon=     3 RMS=9.66D-03 Max=1.21D+00 NDo=     3
 LinEq1:  Iter= 61 NonCon=     3 RMS=5.09D-03 Max=6.32D-01 NDo=     3
 LinEq1:  Iter= 62 NonCon=     3 RMS=3.44D-03 Max=3.33D-01 NDo=     3
 LinEq1:  Iter= 63 NonCon=     3 RMS=1.95D-03 Max=2.01D-01 NDo=     3
 LinEq1:  Iter= 64 NonCon=     3 RMS=9.69D-04 Max=1.30D-01 NDo=     3
 LinEq1:  Iter= 65 NonCon=     3 RMS=5.25D-04 Max=6.28D-02 NDo=     3
 LinEq1:  Iter= 66 NonCon=     3 RMS=3.01D-04 Max=3.97D-02 NDo=     3
 LinEq1:  Iter= 67 NonCon=     3 RMS=1.65D-04 Max=2.34D-02 NDo=     3
 LinEq1:  Iter= 68 NonCon=     3 RMS=8.94D-05 Max=1.28D-02 NDo=     3
 LinEq1:  Iter= 69 NonCon=     3 RMS=4.32D-05 Max=6.51D-03 NDo=     3
 LinEq1:  Iter= 70 NonCon=     3 RMS=2.50D-05 Max=2.57D-03 NDo=     3
 LinEq1:  Iter= 71 NonCon=     3 RMS=1.48D-05 Max=1.42D-03 NDo=     3
 LinEq1:  Iter= 72 NonCon=     3 RMS=7.07D-06 Max=8.77D-04 NDo=     3
 LinEq1:  Iter= 73 NonCon=     3 RMS=3.38D-06 Max=4.71D-04 NDo=     3
 LinEq1:  Iter= 74 NonCon=     3 RMS=1.87D-06 Max=2.92D-04 NDo=     3
 LinEq1:  Iter= 75 NonCon=     3 RMS=1.21D-06 Max=1.93D-04 NDo=     3
 LinEq1:  Iter= 76 NonCon=     3 RMS=6.10D-07 Max=9.14D-05 NDo=     3
 LinEq1:  Iter= 77 NonCon=     3 RMS=3.42D-07 Max=3.79D-05 NDo=     3
 LinEq1:  Iter= 78 NonCon=     3 RMS=1.73D-07 Max=1.42D-05 NDo=     3
 LinEq1:  Iter= 79 NonCon=     3 RMS=9.58D-08 Max=6.57D-06 NDo=     3
 LinEq1:  Iter= 80 NonCon=     3 RMS=5.01D-08 Max=3.40D-06 NDo=     3
 LinEq1:  Iter= 81 NonCon=     3 RMS=1.69D-08 Max=1.27D-06 NDo=     3
 LinEq1:  Iter= 82 NonCon=     3 RMS=8.36D-09 Max=5.64D-07 NDo=     3
 LinEq1:  Iter= 83 NonCon=     3 RMS=5.46D-09 Max=3.26D-07 NDo=     3
 LinEq1:  Iter= 84 NonCon=     3 RMS=4.09D-09 Max=2.93D-07 NDo=     3
 LinEq1:  Iter= 85 NonCon=     2 RMS=4.08D-09 Max=2.37D-07 NDo=     3
 LinEq1:  Iter= 86 NonCon=     1 RMS=1.99D-09 Max=1.06D-07 NDo=     2
 LinEq1:  Iter= 87 NonCon=     0 RMS=5.52D-10 Max=3.55D-08 NDo=     1
 Linear equations converged to 1.000D-08 1.000D-07 after    87 iterations.
 FullF1:  Do perturbations    1 to     9.
 SCF Polarizability for W=    0.000000:
                1             2             3 
      1  0.414681D+03
      2  0.129865D+03  0.355678D+03
      3 -0.105027D+03 -0.144396D+03  0.392874D+03
 Isotropic polarizability for W=    0.000000      387.74 Bohr**3.
 SCF Polarizability for W=    0.072000:
                1             2             3 
      1  0.509456D+03
      2  0.210100D+03  0.438345D+03
      3 -0.193865D+03 -0.229016D+03  0.493496D+03
 Isotropic polarizability for W=    0.072000      480.43 Bohr**3.
 SCF Polarizability for W=    0.144000:
                1             2             3 
      1  0.153047D+03
      2 -0.947611D+02  0.258945D+03
      3  0.129332D+03  0.178394D+02  0.263801D+03
 Isotropic polarizability for W=    0.144000      225.26 Bohr**3.
 SCF Static Hyperpolarizability:
 K=  1 block:
                1 
      1 -0.337546D+04
 K=  2 block:
                1             2 
      1 -0.245592D+04
      2 -0.213969D+04 -0.196821D+04
 K=  3 block:
                1             2             3 
      1  0.214540D+04
      2  0.231088D+04  0.210330D+04
      3 -0.296011D+04 -0.232911D+04  0.234568D+04
 SCF Beta(-W,W;0) for W=    0.072000:
 K=  1 block:
                1             2             3 
      1 -0.298208D+05
      2 -0.154986D+05 -0.112878D+05
      3  0.103483D+05  0.110890D+05 -0.139408D+05
 K=  2 block:
                1             2             3 
      1 -0.181946D+05
      2 -0.123013D+05 -0.101996D+05
      3  0.112008D+05  0.107022D+05 -0.123155D+05
 K=  3 block:
                1             2             3 
      1  0.124880D+05
      2  0.118603D+05  0.107724D+05
      3 -0.137904D+05 -0.120789D+05  0.132397D+05
 SCF Beta(W,W;-2W) for W=    0.072000:
 K=  1 block:
                1             2             3 
      1 -0.267422D+05
      2 -0.635088D+04  0.283301D+04
      3 -0.914750D+04 -0.101235D+05  0.104945D+05
 K=  2 block:
                1             2             3 
      1 -0.132171D+05
      2 -0.502236D+03  0.506351D+04
      3 -0.905955D+04 -0.100396D+05  0.112021D+05
 K=  3 block:
                1             2             3 
      1  0.427086D+04
      2 -0.314503D+04 -0.690558D+04
      3  0.914385D+04  0.105147D+05 -0.121671D+05
 SCF Beta(-W,W;0) for W=    0.144000:
 K=  1 block:
                1             2             3 
      1 -0.818894D+07
      2 -0.531475D+07 -0.345699D+07
      3  0.414918D+07  0.271820D+07 -0.217280D+07
 K=  2 block:
                1             2             3 
      1 -0.198309D+07
      2 -0.129153D+07 -0.842735D+06
      3  0.101363D+07  0.668553D+06 -0.536023D+06
 K=  3 block:
                1             2             3 
      1 -0.234278D+07
      2 -0.151432D+07 -0.981489D+06
      3  0.116980D+07  0.756481D+06 -0.595315D+06
 End of Minotr F.D. properties on file   721 Mask=      31 NFrqRd=     2 NDeriv=     1 ND12= 1 LenFil=      94:
 Frequencies=    0.000000    0.072000
 Property number 1 -- Alpha(-w,w) frequency  1    0.000000:
                 1             2             3 
      1   0.414681D+03  0.129865D+03 -0.105027D+03
      2   0.129865D+03  0.355678D+03 -0.144396D+03
      3  -0.105027D+03 -0.144396D+03  0.392874D+03
 Property number 1 -- Alpha(-w,w) frequency  2    0.072000:
                 1             2             3 
      1   0.509456D+03  0.210100D+03 -0.193865D+03
      2   0.210100D+03  0.438345D+03 -0.229016D+03
      3  -0.193865D+03 -0.229016D+03  0.493496D+03
 Property number 5 -- Beta(-w,w,0) frequency  1    0.000000:
                 1 
      1  -0.337546D+04
      2  -0.245592D+04
      3  -0.213969D+04
      4   0.214540D+04
      5   0.231088D+04
      6  -0.296011D+04
      7  -0.245592D+04
      8  -0.213969D+04
      9  -0.196821D+04
     10   0.231088D+04
     11   0.210330D+04
     12  -0.232911D+04
     13   0.214540D+04
     14   0.231088D+04
     15   0.210330D+04
     16  -0.296011D+04
     17  -0.232911D+04
     18   0.234568D+04
 Property number 5 -- Beta(-w,w,0) frequency  2    0.072000:
                 1 
      1  -0.298208D+05
      2  -0.154986D+05
      3  -0.112878D+05
      4   0.103483D+05
      5   0.110890D+05
      6  -0.139408D+05
      7  -0.181946D+05
      8  -0.123013D+05
      9  -0.101996D+05
     10   0.112008D+05
     11   0.107022D+05
     12  -0.123155D+05
     13   0.124880D+05
     14   0.118603D+05
     15   0.107724D+05
     16  -0.137904D+05
     17  -0.120789D+05
     18   0.132397D+05
 Property number 6 -- Beta(w,w,-2w) frequency  1    0.000000:
                 1 
      1  -0.337546D+04
      2  -0.245592D+04
      3  -0.213969D+04
      4   0.214540D+04
      5   0.231088D+04
      6  -0.296011D+04
      7  -0.245592D+04
      8  -0.213969D+04
      9  -0.196821D+04
     10   0.231088D+04
     11   0.210330D+04
     12  -0.232911D+04
     13   0.214540D+04
     14   0.231088D+04
     15   0.210330D+04
     16  -0.296011D+04
     17  -0.232911D+04
     18   0.234568D+04
 Property number 6 -- Beta(w,w,-2w) frequency  2    0.072000:
                 1 
      1  -0.267422D+05
      2  -0.635088D+04
      3   0.283301D+04
      4  -0.914750D+04
      5  -0.101235D+05
      6   0.104945D+05
      7  -0.132171D+05
      8  -0.502236D+03
      9   0.506351D+04
     10  -0.905955D+04
     11  -0.100396D+05
     12   0.112021D+05
     13   0.427086D+04
     14  -0.314503D+04
     15  -0.690558D+04
     16   0.914385D+04
     17   0.105147D+05
     18  -0.121671D+05
 End of Minotr F.D. properties file   722 does not exist.
 End of Minotr F.D. properties file   788 does not exist.
 Leave Link 1002 at Thu Jan 14 05:15:48 2021, MaxMem=  6442450944 cpu:    315672.8
 (Enter /usr/local/bin/G09/G09d//g09/l601.exe)
 Copying SCF densities to generalized density rwf, IOpCl= 0 IROHF=0.

 **********************************************************************

            Population analysis using the SCF density.

 **********************************************************************

 Alpha  occ. eigenvalues --  -88.97631 -19.16878 -19.15461 -19.15164 -19.13181
 Alpha  occ. eigenvalues --  -19.02392 -19.02302 -19.01576 -14.44497 -10.28572
 Alpha  occ. eigenvalues --  -10.26377 -10.23766 -10.23437 -10.22666 -10.21644
 Alpha  occ. eigenvalues --  -10.21516 -10.19609 -10.18847 -10.18689 -10.18115
 Alpha  occ. eigenvalues --  -10.17153 -10.16590 -10.16420 -10.16347 -10.15710
 Alpha  occ. eigenvalues --  -10.15634 -10.15532 -10.14409 -10.14398 -10.14215
 Alpha  occ. eigenvalues --  -10.14151 -10.13821 -10.13718 -10.13566  -8.03778
 Alpha  occ. eigenvalues --   -6.00042  -6.00006  -5.99954  -1.17191  -1.12681
 Alpha  occ. eigenvalues --   -1.08691  -1.07299  -1.06559  -1.06074  -0.92621
 Alpha  occ. eigenvalues --   -0.92016  -0.89840  -0.88506  -0.87123  -0.86823
 Alpha  occ. eigenvalues --   -0.82238  -0.82034  -0.79096  -0.77648  -0.77413
 Alpha  occ. eigenvalues --   -0.77081  -0.74277  -0.73814  -0.72772  -0.72604
 Alpha  occ. eigenvalues --   -0.69823  -0.69081  -0.66353  -0.65365  -0.64375
 Alpha  occ. eigenvalues --   -0.64074  -0.62195  -0.61588  -0.61399  -0.60743
 Alpha  occ. eigenvalues --   -0.58686  -0.56611  -0.56298  -0.55830  -0.54521
 Alpha  occ. eigenvalues --   -0.53696  -0.53096  -0.52781  -0.52448  -0.51347
 Alpha  occ. eigenvalues --   -0.50375  -0.48955  -0.48316  -0.47770  -0.47636
 Alpha  occ. eigenvalues --   -0.47065  -0.46547  -0.46266  -0.46012  -0.44939
 Alpha  occ. eigenvalues --   -0.44534  -0.44223  -0.44188  -0.43882  -0.43338
 Alpha  occ. eigenvalues --   -0.42473  -0.42369  -0.42096  -0.41077  -0.40578
 Alpha  occ. eigenvalues --   -0.40056  -0.39329  -0.39274  -0.38745  -0.37916
 Alpha  occ. eigenvalues --   -0.37852  -0.37555  -0.37081  -0.36085  -0.35361
 Alpha  occ. eigenvalues --   -0.35015  -0.34431  -0.33993  -0.33574  -0.33162
 Alpha  occ. eigenvalues --   -0.32202  -0.28702  -0.28269  -0.27797  -0.27462
 Alpha  occ. eigenvalues --   -0.25236  -0.24819  -0.24156  -0.23819  -0.22094
 Alpha  occ. eigenvalues --   -0.21282  -0.20172  -0.18856
 Alpha virt. eigenvalues --   -0.11293  -0.09054  -0.04875  -0.03123  -0.02165
 Alpha virt. eigenvalues --   -0.02082  -0.01255  -0.00352  -0.00300   0.00707
 Alpha virt. eigenvalues --    0.01159   0.01649   0.02226   0.02243   0.02799
 Alpha virt. eigenvalues --    0.02947   0.03091   0.03310   0.04006   0.04566
 Alpha virt. eigenvalues --    0.05019   0.05133   0.05813   0.06086   0.06450
 Alpha virt. eigenvalues --    0.06637   0.06889   0.07078   0.07283   0.07488
 Alpha virt. eigenvalues --    0.07736   0.07847   0.08729   0.08860   0.09153
 Alpha virt. eigenvalues --    0.09340   0.09592   0.09720   0.09926   0.10440
 Alpha virt. eigenvalues --    0.10521   0.10844   0.11007   0.11510   0.11725
 Alpha virt. eigenvalues --    0.11804   0.11999   0.12073   0.12635   0.13101
 Alpha virt. eigenvalues --    0.13824   0.13857   0.14056   0.14279   0.14571
 Alpha virt. eigenvalues --    0.14724   0.14950   0.15166   0.15290   0.15637
 Alpha virt. eigenvalues --    0.15761   0.15949   0.16319   0.16448   0.16730
 Alpha virt. eigenvalues --    0.16878   0.16973   0.17299   0.17620   0.17733
 Alpha virt. eigenvalues --    0.17935   0.18042   0.18296   0.18457   0.18561
 Alpha virt. eigenvalues --    0.18768   0.19008   0.19336   0.19539   0.19666
 Alpha virt. eigenvalues --    0.19728   0.20003   0.20204   0.20340   0.20563
 Alpha virt. eigenvalues --    0.20743   0.20971   0.21059   0.21331   0.21613
 Alpha virt. eigenvalues --    0.21704   0.21940   0.21974   0.22215   0.22498
 Alpha virt. eigenvalues --    0.22611   0.22883   0.23010   0.23203   0.23229
 Alpha virt. eigenvalues --    0.23375   0.23672   0.24017   0.24035   0.24139
 Alpha virt. eigenvalues --    0.24535   0.24774   0.25062   0.25091   0.25470
 Alpha virt. eigenvalues --    0.25609   0.25850   0.26187   0.26390   0.26585
 Alpha virt. eigenvalues --    0.26672   0.26997   0.27124   0.27307   0.27511
 Alpha virt. eigenvalues --    0.27796   0.28142   0.28318   0.28623   0.28766
 Alpha virt. eigenvalues --    0.28965   0.29447   0.29621   0.29845   0.30055
 Alpha virt. eigenvalues --    0.30278   0.30364   0.30490   0.30500   0.31168
 Alpha virt. eigenvalues --    0.31562   0.31926   0.32149   0.32179   0.32259
 Alpha virt. eigenvalues --    0.32623   0.32744   0.32931   0.33216   0.33398
 Alpha virt. eigenvalues --    0.33741   0.33993   0.34293   0.34559   0.35032
 Alpha virt. eigenvalues --    0.35089   0.35505   0.35914   0.35999   0.36152
 Alpha virt. eigenvalues --    0.36357   0.36731   0.37124   0.37524   0.37716
 Alpha virt. eigenvalues --    0.37925   0.38219   0.38500   0.38834   0.39193
 Alpha virt. eigenvalues --    0.39603   0.39868   0.40223   0.40627   0.41237
 Alpha virt. eigenvalues --    0.41509   0.41593   0.41824   0.42219   0.42635
 Alpha virt. eigenvalues --    0.43110   0.43289   0.43594   0.44301   0.44981
 Alpha virt. eigenvalues --    0.45325   0.45729   0.46143   0.46572   0.47015
 Alpha virt. eigenvalues --    0.47440   0.47646   0.48050   0.48504   0.49115
 Alpha virt. eigenvalues --    0.50205   0.50701   0.51277   0.51977   0.52058
 Alpha virt. eigenvalues --    0.52566   0.52792   0.53121   0.53239   0.53774
 Alpha virt. eigenvalues --    0.54112   0.54398   0.54525   0.54768   0.55226
 Alpha virt. eigenvalues --    0.55406   0.56342   0.56595   0.56742   0.57235
 Alpha virt. eigenvalues --    0.57408   0.58253   0.58415   0.58731   0.58842
 Alpha virt. eigenvalues --    0.59414   0.59900   0.60101   0.60675   0.61172
 Alpha virt. eigenvalues --    0.61422   0.62130   0.62517   0.62849   0.62967
 Alpha virt. eigenvalues --    0.63592   0.63928   0.64005   0.64423   0.64866
 Alpha virt. eigenvalues --    0.65322   0.65849   0.66200   0.66478   0.66777
 Alpha virt. eigenvalues --    0.67205   0.67578   0.67979   0.68072   0.68761
 Alpha virt. eigenvalues --    0.69126   0.69347   0.69902   0.70153   0.70487
 Alpha virt. eigenvalues --    0.70848   0.71292   0.71580   0.71997   0.72435
 Alpha virt. eigenvalues --    0.72966   0.73256   0.73447   0.74354   0.74691
 Alpha virt. eigenvalues --    0.75110   0.75298   0.75693   0.76005   0.76188
 Alpha virt. eigenvalues --    0.76470   0.76794   0.76997   0.77406   0.77773
 Alpha virt. eigenvalues --    0.78216   0.78588   0.78841   0.79253   0.80412
 Alpha virt. eigenvalues --    0.80807   0.81037   0.81693   0.81818   0.82110
 Alpha virt. eigenvalues --    0.82136   0.83051   0.83675   0.84199   0.84820
 Alpha virt. eigenvalues --    0.85116   0.85256   0.85873   0.87211   0.87560
 Alpha virt. eigenvalues --    0.88384   0.89055   0.89592   0.90011   0.90093
 Alpha virt. eigenvalues --    0.90664   0.91388   0.91613   0.92312   0.92624
 Alpha virt. eigenvalues --    0.93071   0.93518   0.93812   0.94646   0.95261
 Alpha virt. eigenvalues --    0.95498   0.96038   0.96116   0.96519   0.97650
 Alpha virt. eigenvalues --    0.98191   0.98281   0.98762   0.98853   0.99911
 Alpha virt. eigenvalues --    1.00343   1.01037   1.01146   1.01397   1.01857
 Alpha virt. eigenvalues --    1.02252   1.02908   1.03360   1.03549   1.04264
 Alpha virt. eigenvalues --    1.04844   1.05373   1.05420   1.06036   1.06172
 Alpha virt. eigenvalues --    1.07199   1.07560   1.08078   1.08139   1.08738
 Alpha virt. eigenvalues --    1.09127   1.10335   1.10811   1.11611   1.12222
 Alpha virt. eigenvalues --    1.12747   1.13516   1.13886   1.14148   1.14288
 Alpha virt. eigenvalues --    1.15024   1.15502   1.15862   1.15981   1.16608
 Alpha virt. eigenvalues --    1.17373   1.18285   1.18511   1.19136   1.20634
 Alpha virt. eigenvalues --    1.20840   1.21058   1.21980   1.22323   1.22484
 Alpha virt. eigenvalues --    1.23544   1.23868   1.24581   1.25297   1.25749
 Alpha virt. eigenvalues --    1.25973   1.26350   1.26996   1.28043   1.28590
 Alpha virt. eigenvalues --    1.28728   1.30131   1.30661   1.32237   1.33342
 Alpha virt. eigenvalues --    1.33729   1.34372   1.36904   1.37463   1.38821
 Alpha virt. eigenvalues --    1.39579   1.40012   1.40518   1.41659   1.42382
 Alpha virt. eigenvalues --    1.42478   1.44353   1.44941   1.46362   1.47559
 Alpha virt. eigenvalues --    1.48821   1.49581   1.50164   1.50570   1.52979
 Alpha virt. eigenvalues --    1.53482   1.54225   1.54271   1.54927   1.55883
 Alpha virt. eigenvalues --    1.56142   1.56525   1.57111   1.57949   1.58891
 Alpha virt. eigenvalues --    1.60062   1.60387   1.61156   1.62063   1.62726
 Alpha virt. eigenvalues --    1.63382   1.63950   1.65185   1.65807   1.66372
 Alpha virt. eigenvalues --    1.68145   1.68759   1.69257   1.70570   1.71550
 Alpha virt. eigenvalues --    1.72370   1.73476   1.73741   1.74537   1.77121
 Alpha virt. eigenvalues --    1.77363   1.78393   1.79011   1.79704   1.81296
 Alpha virt. eigenvalues --    1.82141   1.83103   1.84052   1.84602   1.84988
 Alpha virt. eigenvalues --    1.85640   1.86682   1.86744   1.87578   1.88343
 Alpha virt. eigenvalues --    1.88587   1.89079   1.89874   1.90893   1.91523
 Alpha virt. eigenvalues --    1.91892   1.92350   1.92845   1.94162   1.94733
 Alpha virt. eigenvalues --    1.95082   1.95509   1.96187   1.97574   1.97932
 Alpha virt. eigenvalues --    1.99114   1.99592   2.00702   2.01331   2.02235
 Alpha virt. eigenvalues --    2.02807   2.04342   2.04720   2.05764   2.05989
 Alpha virt. eigenvalues --    2.08238   2.09527   2.10626   2.11927   2.14096
 Alpha virt. eigenvalues --    2.14807   2.15786   2.16263   2.17604   2.18756
 Alpha virt. eigenvalues --    2.21241   2.22563   2.23885   2.26335   2.27328
 Alpha virt. eigenvalues --    2.28314   2.29751   2.30046   2.30744   2.31483
 Alpha virt. eigenvalues --    2.33443   2.33795   2.34035   2.34753   2.35501
 Alpha virt. eigenvalues --    2.36137   2.38221   2.39242   2.40362   2.41973
 Alpha virt. eigenvalues --    2.42722   2.43306   2.44022   2.45531   2.46823
 Alpha virt. eigenvalues --    2.47534   2.48009   2.52147   2.54158   2.56240
 Alpha virt. eigenvalues --    2.56834   2.60619   2.61744   2.62776   2.63339
 Alpha virt. eigenvalues --    2.63964   2.64279   2.64839   2.66745   2.67585
 Alpha virt. eigenvalues --    2.67999   2.68967   2.69683   2.70036   2.70731
 Alpha virt. eigenvalues --    2.71435   2.72792   2.73160   2.73629   2.74670
 Alpha virt. eigenvalues --    2.75684   2.76102   2.76459   2.78038   2.80503
 Alpha virt. eigenvalues --    2.80795   2.81568   2.82096   2.82965   2.83779
 Alpha virt. eigenvalues --    2.84447   2.84783   2.86030   2.87232   2.87923
 Alpha virt. eigenvalues --    2.88370   2.89798   2.90272   2.91320   2.92147
 Alpha virt. eigenvalues --    2.92341   2.92705   2.93922   2.94124   2.94772
 Alpha virt. eigenvalues --    2.95252   2.95894   2.96577   2.97315   2.97489
 Alpha virt. eigenvalues --    2.98373   2.98786   3.00051   3.00277   3.00531
 Alpha virt. eigenvalues --    3.01128   3.02328   3.04526   3.05730   3.08193
 Alpha virt. eigenvalues --    3.10442   3.10812   3.12328   3.13546   3.14825
 Alpha virt. eigenvalues --    3.15479   3.16363   3.19521   3.22029   3.23612
 Alpha virt. eigenvalues --    3.24010   3.24770   3.25362   3.26598   3.27815
 Alpha virt. eigenvalues --    3.28503   3.30309   3.30927   3.32431   3.33712
 Alpha virt. eigenvalues --    3.35124   3.35778   3.36324   3.38224   3.39469
 Alpha virt. eigenvalues --    3.39812   3.40609   3.40862   3.41745   3.42188
 Alpha virt. eigenvalues --    3.44972   3.47365   3.48010   3.49408   3.50834
 Alpha virt. eigenvalues --    3.52617   3.53178   3.54511   3.55030   3.56179
 Alpha virt. eigenvalues --    3.56917   3.57334   3.60920   3.63235   3.64872
 Alpha virt. eigenvalues --    3.67723   3.71587   3.71881   3.72356   3.73195
 Alpha virt. eigenvalues --    3.73709   3.75625   3.76743   3.79502   3.80089
 Alpha virt. eigenvalues --    3.80866   3.82622   3.83227   3.87153   3.90807
 Alpha virt. eigenvalues --    3.91513   3.92179   4.00924   4.02203   4.06785
 Alpha virt. eigenvalues --    4.08787   4.14040   4.15601   4.21183   4.23450
 Alpha virt. eigenvalues --    4.24282   4.25415   4.40201   4.41937   4.66157
 Alpha virt. eigenvalues --    4.80172   4.81276   4.83716   4.84441   4.94845
 Alpha virt. eigenvalues --    4.97371   5.00641   5.07952   5.11584   5.12313
 Alpha virt. eigenvalues --    5.15703   5.15836   5.17974   5.19381   5.21321
 Alpha virt. eigenvalues --    5.24715   5.27026   5.28294   5.28705   5.30072
 Alpha virt. eigenvalues --    5.38240   5.41282   5.45953   5.47158   5.68305
 Alpha virt. eigenvalues --    5.85636   8.42917  17.54953  17.61416  17.62538
 Alpha virt. eigenvalues --   23.43069  23.44961  23.50862  23.64944  23.65680
 Alpha virt. eigenvalues --   23.70920  23.75915  23.81869  23.90016  23.91244
 Alpha virt. eigenvalues --   23.92714  23.93402  23.95720  24.03500  24.06266
 Alpha virt. eigenvalues --   24.06794  24.06978  24.10958  24.14520  24.14565
 Alpha virt. eigenvalues --   24.16250  24.19657  24.22364  24.22937  24.23182
 Alpha virt. eigenvalues --   35.53629  49.81055  49.82330  49.93353  49.98893
 Alpha virt. eigenvalues --   50.01362  50.01958  50.08054 189.54838
 Electronic spatial extent (au):  <R**2>=         155315.2077
 Charge=              0.0000 electrons
 Dipole moment (field-independent basis, Debye):
    X=            -16.9960    Y=             -3.0653    Z=             -7.5815  Tot=             18.8611
 Quadrupole moment (field-independent basis, Debye-Ang):
   XX=           -439.9681   YY=           -211.3096   ZZ=           -314.9849
   XY=            -57.8852   XZ=           -219.3591   YZ=            -63.4328
 Traceless Quadrupole moment (field-independent basis, Debye-Ang):
   XX=           -117.8806   YY=            110.7780   ZZ=              7.1026
   XY=            -57.8852   XZ=           -219.3591   YZ=            -63.4328
 Octapole moment (field-independent basis, Debye-Ang**2):
  XXX=          -8144.0405  YYY=          -2137.3516  ZZZ=          -5955.7115  XYY=          -1974.7608
  XXY=          -1300.7876  XXZ=          -4495.8650  XZZ=          -4431.0416  YZZ=          -1570.3111
  YYZ=          -1697.7209  XYZ=           -748.1823
 Hexadecapole moment (field-independent basis, Debye-Ang**3):
 XXXX=        -140863.3520 YYYY=         -19571.1531 ZZZZ=         -92067.2173 XXXY=         -26948.2164
 XXXZ=         -76375.4239 YYYX=         -21733.3531 YYYZ=         -14365.5617 ZZZX=         -70882.1292
 ZZZY=         -24683.9912 XXYY=         -22889.0049 XXZZ=         -66563.8168 YYZZ=         -18440.6708
 XXYZ=         -12769.9904 YYXZ=         -15513.2554 ZZXY=         -16566.4266
 N-N= 3.776884314618D+03 E-N=-1.212692112717D+04  KE= 1.950610958421D+03
  Exact polarizability: 414.681 129.865 355.678-105.027-144.396 392.874
 Approx polarizability: 607.872 180.741 616.991-188.401-233.615 653.423
 No NMR shielding tensors so no spin-rotation constants.
 Leave Link  601 at Thu Jan 14 05:15:56 2021, MaxMem=  6442450944 cpu:        12.9
 (Enter /usr/local/bin/G09/G09d//g09/l602.exe)
 FitSet:  NAtFit=    61 NAtPot=    61 NAtFrz=     0 MDM=    65 TotChg=   0.00000
 Breneman (CHELPG) radii used.
 Generate Potential Derived Charges using the Breneman model, NDens= 1.
 Grid spacing= 0.300 Box extension= 2.800
 NStep X,Y,Z=   62     50     52   Total possible points=      161200
 Number of Points to Fit=   30042

 **********************************************************************

            Electrostatic Properties Using The SCF Density

 **********************************************************************

       Atomic Center    1 is at   4.981328  0.071552 10.993252
       Atomic Center    2 is at   5.237190 -0.321152 11.796859
       Atomic Center    3 is at   3.721703 -0.115648 10.538604
       Atomic Center    4 is at   3.115443 -0.622336 11.027606
       Atomic Center    5 is at   3.348624  0.456768  9.338043
       Atomic Center    6 is at   2.486605  0.336960  9.009138
       Atomic Center    7 is at   4.260512  1.200576  8.637825
       Atomic Center    8 is at   4.008560  1.584128  7.828959
       Atomic Center    9 is at   5.554116  1.395680  9.108582
       Atomic Center   10 is at   6.571241  2.139654  8.393078
       Atomic Center   11 is at   7.424292  2.184832  8.762582
       Atomic Center   12 is at   6.352534  2.762240  7.236733
       Atomic Center   13 is at   5.487633  2.713152  6.900267
       Atomic Center   14 is at   7.313628  3.510208  6.440030
       Atomic Center   15 is at   6.859881  4.162080  5.285657
       Atomic Center   16 is at   5.964942  4.086784  5.044526
       Atomic Center   17 is at   7.706735  4.910298  4.500788
       Atomic Center   18 is at   9.054207  5.005312  4.845144
       Atomic Center   19 is at   9.516534  4.350528  5.975355
       Atomic Center   20 is at  10.415511  4.407104  6.204980
       Atomic Center   21 is at   8.656140  3.617536  6.763017
       Atomic Center   22 is at   8.980968  3.189056  7.521586
       Atomic Center   23 is at   7.209337  0.995072 10.903999
       Atomic Center   24 is at   7.243593  0.545792 11.752479
       Atomic Center   25 is at   7.874112  0.624832 10.319170
       Atomic Center   26 is at   7.379610  1.931072 11.030893
       Atomic Center   27 is at  11.211774  5.821504  4.267876
       Atomic Center   28 is at  11.572521  4.932928  4.304859
       Atomic Center   29 is at  11.643778  6.314048  3.566836
       Atomic Center   30 is at  11.360398  6.262464  5.106986
       Atomic Center   31 is at   5.874834  0.814528 10.306020
       Atomic Center   32 is at   7.303978  5.576563  3.386193
       Atomic Center   33 is at   9.824057  5.755027  4.009650
       Atomic Center   34 is at   6.491451  5.358080  3.188784
       Atomic Center   35 is at  11.625734  3.489158  8.897037
       Atomic Center   36 is at  11.799321  4.840243  8.824879
       Atomic Center   37 is at  11.333829  5.398848  9.405271
       Atomic Center   38 is at  12.684164  5.393856  7.871531
       Atomic Center   39 is at  12.895367  6.789120  7.750719
       Atomic Center   40 is at  12.443058  7.374848  8.313851
       Atomic Center   41 is at  13.756273  7.278336  6.816602
       Atomic Center   42 is at  13.881943  8.196864  6.744115
       Atomic Center   43 is at  14.450900  6.418048  5.966807
       Atomic Center   44 is at  15.035548  6.766656  5.332174
       Atomic Center   45 is at  14.279507  5.076032  6.059348
       Atomic Center   46 is at  14.754396  4.512768  5.493257
       Atomic Center   47 is at  13.388097  4.521920  7.004971
       Atomic Center   48 is at  13.186172  3.129984  7.116085
       Atomic Center   49 is at  13.649195  2.551744  6.553445
       Atomic Center   50 is at  12.324882  2.624128  8.035244
       Atomic Center   51 is at  12.196412  1.704768  8.095239
       Atomic Center   52 is at   9.413483  3.682848 10.235176
       Atomic Center   53 is at  11.304968  2.659072 11.327088
       Atomic Center   54 is at  10.131317  1.509414  9.570298
       Atomic Center   55 is at  10.537122  2.790195 10.108447
       Atomic Center   56 is at   3.560232  2.189824  5.300286
       Atomic Center   57 is at   4.022351  2.146560  4.620450
       Atomic Center   58 is at   3.325427  3.020160  5.397922
       Atomic Center   59 is at   4.825874  4.922944  2.761915
       Atomic Center   60 is at   4.705227  4.293120  2.368577
       Atomic Center   61 is at   4.096599  5.366400  2.843607
   30042 points will be used for fitting atomic charges
 Fitting point charges to electrostatic potential
 Charges from ESP fit, RMS=   0.00422 RRMS=   0.11317:
 ESP charges:
               1
     1  C    0.069241
     2  H    0.128654
     3  C   -0.234061
     4  H    0.151765
     5  C    0.107144
     6  H    0.095128
     7  C   -0.398328
     8  H    0.275773
     9  C    0.450918
    10  C   -0.454087
    11  H    0.283056
    12  C    0.028134
    13  H    0.086394
    14  C    0.101483
    15  C   -0.471109
    16  H    0.191942
    17  C    0.392824
    18  C    0.316057
    19  C   -0.362057
    20  H    0.216535
    21  C   -0.019146
    22  H    0.048677
    23  C   -0.015976
    24  H    0.082203
    25  H    0.106110
    26  H    0.096712
    27  C    0.191747
    28  H   -0.015463
    29  H    0.032038
    30  H    0.014840
    31  N   -0.117175
    32  O   -0.857986
    33  O   -0.320294
    34  H    0.709244
    35  C   -0.090926
    36  C   -0.178289
    37  H    0.112133
    38  C    0.148431
    39  C   -0.233158
    40  H    0.143659
    41  C   -0.087396
    42  H    0.093602
    43  C   -0.094949
    44  H    0.099176
    45  C   -0.236850
    46  H    0.129518
    47  C    0.203090
    48  C   -0.313277
    49  H    0.154451
    50  C   -0.008221
    51  H    0.081805
    52  O   -0.768733
    53  O   -0.777226
    54  O   -0.783990
    55  S    1.554003
    56  O   -0.940661
    57  H    0.475600
    58  H    0.453910
    59  O   -1.093640
    60  H    0.527105
    61  H    0.519894
 Sum of ESP charges =   0.00000
 ESP charges with hydrogens summed into heavy atoms:
               1
     1  C    0.197896
     3  C   -0.082296
     5  C    0.202271
     7  C   -0.122555
     9  C    0.450918
    10  C   -0.171031
    12  C    0.114527
    14  C    0.101483
    15  C   -0.279167
    17  C    0.392824
    18  C    0.316057
    19  C   -0.145522
    21  C    0.029532
    23  C    0.269049
    27  C    0.223162
    31  N   -0.117175
    32  O   -0.148742
    33  O   -0.320294
    35  C   -0.090926
    36  C   -0.066155
    38  C    0.148431
    39  C   -0.089499
    41  C    0.006206
    43  C    0.004227
    45  C   -0.107331
    47  C    0.203090
    48  C   -0.158826
    50  C    0.073584
    52  O   -0.768733
    53  O   -0.777226
    54  O   -0.783990
    55  S    1.554003
    56  O   -0.011151
    59  O   -0.046641
 Charge=   0.00000 Dipole=   -16.8355    -3.0889    -7.4390 Tot=    18.6631
 -----------------------------------------------------------------

              Electrostatic Properties (Atomic Units)

 -----------------------------------------------------------------
    Center     Electric         -------- Electric Field --------
               Potential          X             Y             Z
 -----------------------------------------------------------------
    1 Atom    -14.693682
    2 Atom     -1.032332
    3 Atom    -14.742685
    4 Atom     -1.051933
    5 Atom    -14.731824
    6 Atom     -1.052756
    7 Atom    -14.741183
    8 Atom     -1.060567
    9 Atom    -14.665267
   10 Atom    -14.775000
   11 Atom     -1.098819
   12 Atom    -14.762277
   13 Atom     -1.085882
   14 Atom    -14.763443
   15 Atom    -14.790597
   16 Atom     -1.091953
   17 Atom    -14.715309
   18 Atom    -14.712871
   19 Atom    -14.800441
   20 Atom     -1.113554
   21 Atom    -14.802130
   22 Atom     -1.126514
   23 Atom    -14.770066
   24 Atom     -1.081804
   25 Atom     -1.098813
   26 Atom     -1.096400
   27 Atom    -14.785801
   28 Atom     -1.124679
   29 Atom     -1.120702
   30 Atom     -1.128296
   31 Atom    -18.266196
   32 Atom    -22.362506
   33 Atom    -22.341870
   34 Atom     -0.988741
   35 Atom    -14.796694
   36 Atom    -14.820024
   37 Atom     -1.138976
   38 Atom    -14.787130
   39 Atom    -14.813195
   40 Atom     -1.126535
   41 Atom    -14.815616
   42 Atom     -1.126535
   43 Atom    -14.815348
   44 Atom     -1.124771
   45 Atom    -14.813322
   46 Atom     -1.123487
[...]
     6        -13.03157427          2.92696119        -20.86482615
     1        -14.36049211          4.02732782        -21.42968420
     1        -11.43397216          3.56504793        -21.43890370
     1        -13.29702349          1.26408462        -21.53862951
     6          0.49885508         -7.26983004        -24.12191081
     1          0.89815140         -5.53972983        -24.49140875
     1          1.93893381         -8.31309168        -24.47631335
     1         -0.89889558         -7.80038013        -25.14781349
     7        -13.03885887          2.81462937        -18.08267375
     8         -1.05889986         -7.85786380        -16.72250867
     8         -0.15181590         -7.49981643        -21.54225112
     1         -1.32573461         -7.67379096        -15.12183271
     6         -6.59438998         -1.44195569        -27.62684099
     6         -6.60018354         -3.93492964        -28.28256756
     1         -8.06894297         -4.88429242        -28.10232199
     6         -4.38241427         -5.07951814        -29.23519557
     6         -4.28416526         -7.66192251        -29.93158762
     1         -5.71840418         -8.66427322        -29.76901016
     6         -2.10546651         -8.68592999        -30.83828457
     1         -2.06341631        -10.38644951        -31.27931896
     6          0.06381141         -7.21471650        -31.11142482
     1          1.54060420         -7.94057602        -31.73199697
     6          0.03484993         -4.73186452        -30.47770255
     1          1.48764890         -3.76761630        -30.68338214
     6         -2.17488832         -3.59001963        -29.50787065
     6         -2.24990200         -1.01493273        -28.82093325
     1         -0.80945922         -0.02419964        -29.00442863
     6         -4.40014989          0.03525770        -27.89710984
     1         -4.42299024          1.73293061        -27.44156296
     8        -10.67048457         -1.82681541        -24.93561468
     8        -10.82365271          0.78011984        -28.67155594
     8         -8.53842433          2.14050614        -24.98544562
    16         -9.38494954          0.01116100        -26.47860659
     8         -6.62683543         -1.72959710        -10.76123424
     1         -5.09314751         -1.76694736        -11.01846879
     1         -7.14372352         -3.28550808        -10.69056875
     8         -1.83741088         -7.32688107        -11.82769163
     1         -1.13922029         -6.30372634        -11.13003556
     1         -2.64398224         -8.26797423        -10.78408161

 Electric dipole moment (dipole orientation):
 (Debye = 10**-18 statcoulomb cm , SI units = C m)
                  (au)            (Debye)         (10**-30 SI)
   Tot        0.742052D+01      0.188611D+02      0.629138D+02
   x          0.000000D+00      0.000000D+00      0.000000D+00
   y          0.000000D+00      0.000000D+00      0.000000D+00
   z          0.742052D+01      0.188611D+02      0.629138D+02

 Dipole polarizability, Alpha (dipole orientation).
 (esu units = cm**3 , SI units = C**2 m**2 J**-1)
 Alpha(0;0):
               (au)            (10**-24 esu)      (10**-40 SI)
   iso        0.387744D+03      0.574578D+02      0.639304D+02
   aniso      0.385886D+03      0.571824D+02      0.636240D+02
   xx         0.437380D+03      0.648130D+02      0.721142D+02
   yx        -0.180400D+03     -0.267326D+02     -0.297440D+02
   yy         0.373168D+03      0.552978D+02      0.615271D+02
   zx        -0.100286D+03     -0.148608D+02     -0.165349D+02
   zy         0.712871D+02      0.105637D+02      0.117537D+02
   zz         0.352685D+03      0.522625D+02      0.581499D+02
 Alpha(-w;w) w=  632.8nm:
                  (au)         (10**-24 esu)      (10**-40 SI)
   iso        0.480432D+03      0.711927D+02      0.792126D+02
   aniso      0.637729D+03      0.945016D+02      0.105147D+03
   xx         0.581159D+03      0.861189D+02      0.958202D+02
   yx        -0.287592D+03     -0.426168D+02     -0.474176D+02
   yy         0.463965D+03      0.687525D+02      0.764975D+02
   zx        -0.169364D+03     -0.250971D+02     -0.279243D+02
   zy         0.124153D+03      0.183976D+02      0.204701D+02
   zz         0.396173D+03      0.587068D+02      0.653201D+02

 First dipole hyperpolarizability, Beta (dipole orientation).
 ||, _|_  parallel and perpendicular components, (z) with respect to z axis,
 vector components x,y,z.  Values do not include the 1/n! factor of 1/2.
 (esu units = statvolt**-1 cm**4 , SI units = C**3 m**3 J**-2)
 Beta(0;0,0):
               (au)            (10**-30 esu)      (10**-50 SI)
   || (z)     0.365042D+04      0.315368D+02      0.117046D+02
   _|_(z)     0.121681D+04      0.105123D+02      0.390152D+01
   x         -0.264099D+05     -0.228161D+03     -0.846795D+02
   y          0.204372D+05      0.176561D+03      0.655291D+02
   z          0.182521D+05      0.157684D+03      0.585228D+02
   ||         0.761130D+04      0.657557D+02      0.244046D+02
   xxx       -0.484038D+04     -0.418171D+02     -0.155200D+02
   xxy        0.366751D+04      0.316844D+02      0.117594D+02
   yxy       -0.281302D+04     -0.243023D+02     -0.901955D+01
   yyy        0.222288D+04      0.192040D+02      0.712737D+01
   xxz        0.260460D+04      0.225017D+02      0.835129D+01
   yxz       -0.200401D+04     -0.173131D+02     -0.642559D+01
   yyz        0.153590D+04      0.132689D+02      0.492464D+01
   zxz       -0.114988D+04     -0.993411D+01     -0.368695D+01
   zyz        0.922005D+03      0.796541D+01      0.295628D+01
   zzz        0.194354D+04      0.167907D+02      0.623168D+01
 Beta(-w;w,0) w=  632.8nm:
                  (au)         (10**-30 esu)      (10**-50 SI)
   || (z)     0.254060D+05      0.219488D+03      0.814609D+02
   _|_(z)     0.807220D+04      0.697375D+02      0.258824D+02
   x         -0.152766D+06     -0.131978D+04     -0.489823D+03
   y          0.113720D+06      0.982449D+03      0.364626D+03
   z          0.127030D+06      0.109744D+04      0.407305D+03
   ||         0.457848D+05      0.395545D+03      0.146803D+03
   xxx       -0.251532D+05     -0.217304D+03     -0.806503D+02
   yxx        0.189450D+05      0.163670D+03      0.607446D+02
   yyx       -0.143754D+05     -0.124193D+03     -0.460928D+02
   zxx        0.144429D+05      0.124775D+03      0.463092D+02
   zyx       -0.104352D+05     -0.901516D+02     -0.334589D+02
   zzx       -0.122747D+05     -0.106043D+03     -0.393570D+02
   xxy        0.194588D+05      0.168109D+03      0.623920D+02
   yxy       -0.147866D+05     -0.127745D+03     -0.474112D+02
   yyy        0.113603D+05      0.981440D+02      0.364252D+02
   zxy       -0.111718D+05     -0.965158D+02     -0.358209D+02
   zyy        0.813712D+04      0.702984D+02      0.260905D+02
   zzy        0.930523D+04      0.803899D+02      0.298359D+02
   xxz        0.139491D+05      0.120509D+03      0.447258D+02
   yxz       -0.100587D+05     -0.868993D+02     -0.322518D+02
   yyz        0.744149D+04      0.642887D+02      0.238601D+02
   zxz       -0.105416D+05     -0.910711D+02     -0.338001D+02
   zyz        0.649234D+04      0.560888D+02      0.208168D+02
   zzz        0.201599D+05      0.174166D+03      0.646398D+02
 Beta(-2w;w,w) w=  632.8nm:
                  (au)         (10**-30 esu)      (10**-50 SI)
   || (z)     0.144742D+05      0.125046D+03      0.464097D+02
   _|_(z)     0.153413D+04      0.132537D+02      0.491897D+01
   x          0.467210D+05      0.403633D+03      0.149804D+03
   y         -0.388778D+05     -0.335874D+03     -0.124656D+03
   z          0.723712D+05      0.625231D+03      0.232048D+03
   ||         0.189018D+05      0.163297D+03      0.606059D+02
   xxx        0.152274D+05      0.131553D+03      0.488244D+02
   yxx       -0.128855D+05     -0.111321D+03     -0.413156D+02
   zxx       -0.482216D+04     -0.416597D+02     -0.154616D+02
   xyx       -0.127833D+05     -0.110438D+03     -0.409879D+02
   yyx        0.107758D+05      0.930943D+02      0.345510D+02
   zyx        0.446140D+04      0.385430D+02      0.143049D+02
   xyy        0.104782D+05      0.905231D+02      0.335968D+02
   yyy       -0.866279D+04     -0.748398D+02     -0.277760D+02
   zyy       -0.380427D+04     -0.328659D+02     -0.121979D+02
   xzx        0.918660D+03      0.793651D+01      0.294556D+01
   yzx       -0.503210D+03     -0.434735D+01     -0.161347D+01
   zzx       -0.633004D+04     -0.546866D+02     -0.202964D+02
   xzy       -0.921637D+03     -0.796223D+01     -0.295510D+01
   yzy        0.326776D+03      0.282309D+01      0.104776D+01
   zzy        0.540616D+04      0.467051D+02      0.173341D+02
   xzz       -0.183308D+05     -0.158363D+03     -0.587750D+02
   yzz        0.147503D+05      0.127431D+03      0.472948D+02
   zzz        0.261689D+05      0.226079D+03      0.839070D+02

 Second dipole hyperpolarizability, Gamma (dipole orientation).
 ||, _|_  isotropic parallel and perpendicular components.
 Values do not include the 1/n! factor of 1/6.
 (esu units = statvolt**-2 cm**5 , SI units = C**4 m**4 J**-3)
 Gamma(0;0,0,0):
               (au)            (10**-36 esu)      (10**-61 SI)
   ||         0.363875D+06      0.183273D+03      0.226890D+03
   _|_        0.121292D+06      0.610910D+02      0.756300D+02
   xxxx       0.313414D+06      0.157857D+03      0.195426D+03
   xxyx      -0.194242D+06     -0.978340D+02     -0.121118D+03
   xxyy       0.161983D+06      0.815858D+02      0.101002D+03
   yxyy      -0.125744D+06     -0.633334D+02     -0.784061D+02
   yyyy       0.153604D+06      0.773656D+02      0.957778D+02
   xxzx      -0.139955D+06     -0.704911D+02     -0.872672D+02
   xxzy       0.103320D+06      0.520393D+02      0.644242D+02
   yxzy      -0.844449D+05     -0.425324D+02     -0.526546D+02
   yyzy       0.718515D+05      0.361894D+02      0.448021D+02
   xxzz       0.904748D+05      0.455694D+02      0.564145D+02
   yxzz      -0.532756D+05     -0.268333D+02     -0.332194D+02
   yyzz       0.677933D+05      0.341454D+02      0.422717D+02
   zxzz      -0.349362D+05     -0.175963D+02     -0.217840D+02
   zyzz       0.204711D+05      0.103107D+02      0.127645D+02
   zzzz       0.711871D+06      0.358548D+03      0.443878D+03
 Gamma(-w;w,0,0) w=  632.8nm:
                  (au)         (10**-36 esu)      (10**-61 SI)
   ||         0.369611D+08      0.186162D+05      0.230466D+05
   _|_        0.118110D+08      0.594884D+04      0.736460D+04
   xxxx       0.716555D+07      0.360907D+04      0.446800D+04
   yxxx      -0.479771D+07     -0.241646D+04     -0.299155D+04
   yyxx       0.340276D+07      0.171387D+04      0.212175D+04
   zxxx      -0.722507D+07     -0.363905D+04     -0.450511D+04
   zyxx       0.407164D+07      0.205076D+04      0.253882D+04
   zzxx       0.123525D+08      0.622156D+04      0.770223D+04
   xxyx      -0.543238D+07     -0.273612D+04     -0.338729D+04
   yxyx       0.374920D+07      0.188836D+04      0.233777D+04
   yyyx      -0.268636D+07     -0.135304D+04     -0.167505D+04
   zxyx       0.525174D+07      0.264514D+04      0.327466D+04
   zyyx      -0.303745D+07     -0.152987D+04     -0.189397D+04
   zzyx      -0.849355D+07     -0.427794D+04     -0.529605D+04
   xxyy       0.704819D+07      0.354996D+04      0.439481D+04
   yxyy      -0.443185D+07     -0.223219D+04     -0.276343D+04
   yyyy       0.298111D+07      0.150149D+04      0.185883D+04
   zxyy      -0.981788D+07     -0.494497D+04     -0.612182D+04
   zyyy       0.542059D+07      0.273019D+04      0.337994D+04
   zzyy       0.183984D+08      0.926669D+04      0.114721D+05
   xxzx      -0.932048D+07     -0.469445D+04     -0.581168D+04
   yxzx       0.521890D+07      0.262860D+04      0.325418D+04
   yyzx      -0.304981D+07     -0.153609D+04     -0.190167D+04
   zxzx       0.163131D+08      0.821639D+04      0.101718D+05
   zyzx      -0.841039D+07     -0.423606D+04     -0.524420D+04
   zzzx      -0.341161D+08     -0.171832D+05     -0.212727D+05
   xxzy       0.153067D+08      0.770951D+04      0.954430D+04
   yxzy      -0.796360D+07     -0.401103D+04     -0.496561D+04
   yyzy       0.427396D+07      0.215266D+04      0.266498D+04
   zxzy      -0.306840D+08     -0.154546D+05     -0.191327D+05
   zyzy       0.152673D+08      0.768967D+04      0.951973D+04
   zzzy       0.662353D+08      0.333607D+05      0.413002D+05
   xxzz       0.224475D+08      0.113061D+05      0.139969D+05
   yxzz      -0.110094D+08     -0.554511D+04     -0.686480D+04
   yyzz       0.553612D+07      0.278838D+04      0.345198D+04
   zxzz      -0.474376D+08     -0.238929D+05     -0.295792D+05
   zyzz       0.226982D+08      0.114324D+05      0.141532D+05
   zzzz       0.109294D+09      0.550479D+05      0.681488D+05
 Gamma(-2w;w,w,0) w=  632.8nm:
                  (au)         (10**-36 esu)      (10**-61 SI)
   ||         0.793197D+07      0.399509D+04      0.494589D+04
   _|_        0.164012D+07      0.826077D+03      0.736460D+04
   xxxx       0.140465D+07      0.707480D+03      0.875853D+03
   yxxx      -0.101603D+07     -0.511744D+03     -0.633534D+03
   zxxx      -0.477341D+06     -0.240422D+03     -0.297640D+03
   xyxx      -0.197306D+07     -0.993771D+03     -0.123028D+04
   yyxx       0.178743D+07      0.900276D+03      0.111453D+04
   zyxx       0.997950D+06      0.502637D+03      0.622260D+03
   xyyx       0.181959D+07      0.916475D+03      0.113459D+04
   yyyx      -0.166890D+07     -0.840572D+03     -0.104062D+04
   zyyx      -0.999303D+06     -0.503319D+03     -0.623103D+03
   xzxx       0.400615D+07      0.201778D+04      0.249799D+04
   yzxx      -0.340863D+07     -0.171682D+04     -0.212541D+04
   zzxx      -0.624348D+07     -0.314465D+04     -0.389305D+04
   xzyx      -0.238007D+07     -0.119877D+04     -0.148406D+04
   yzyx       0.171133D+07      0.861945D+03      0.106708D+04
   zzyx       0.480310D+07      0.241917D+04      0.299491D+04
   xzzx      -0.112745D+08     -0.567862D+04     -0.703007D+04
   yzzx       0.945002D+07      0.475969D+04      0.589245D+04
   zzzx       0.141895D+08      0.714682D+04      0.884769D+04
   xxxy      -0.280834D+07     -0.141448D+04     -0.175111D+04
   yxxy       0.222898D+07      0.112267D+04      0.138986D+04
   zxxy       0.280748D+07      0.141404D+04      0.175057D+04
   xyxy       0.497415D+06      0.250533D+03      0.310157D+03
   yyxy      -0.456991D+06     -0.230173D+03     -0.284951D+03
   zyxy      -0.135129D+07     -0.680605D+03     -0.842582D+03
   xyyy      -0.400499D+05     -0.201719D+02     -0.249726D+02
   yyyy       0.227284D+06      0.114476D+03      0.141720D+03
   zyyy       0.808837D+06      0.407387D+03      0.504341D+03
   xzxy       0.781357D+07      0.393546D+04      0.487206D+04
   yzxy      -0.610342D+07     -0.307411D+04     -0.380572D+04
   zzxy      -0.861866D+07     -0.434096D+04     -0.537406D+04
   xzyy      -0.376228D+07     -0.189495D+04     -0.234592D+04
   yzyy       0.286798D+07      0.144451D+04      0.178830D+04
   zzyy       0.642265D+07      0.323489D+04      0.400476D+04
   xzzy      -0.187402D+08     -0.943888D+04     -0.116852D+05
   yzzy       0.150612D+08      0.758585D+04      0.939121D+04
   zzzy       0.197031D+08      0.992386D+04      0.122856D+05
   xxxz      -0.210082D+07     -0.105812D+04     -0.130994D+04
   yxxz       0.108340D+07      0.545678D+03      0.675544D+03
   zxxz       0.109234D+07      0.550181D+03      0.681119D+03
   xyxz       0.301816D+07      0.152015D+04      0.188193D+04
   yyxz      -0.199439D+07     -0.100451D+04     -0.124358D+04
   zyxz      -0.896725D+06     -0.451653D+03     -0.559142D+03
   xyyz      -0.219169D+07     -0.110389D+04     -0.136660D+04
   yyyz       0.148303D+07      0.746959D+03      0.924728D+03
   zyyz       0.576551D+06      0.290391D+03      0.359501D+03
   xzxz       0.826222D+07      0.416143D+04      0.515181D+04
   yzxz      -0.579462D+07     -0.291858D+04     -0.361317D+04
   zzxz      -0.546603D+07     -0.275307D+04     -0.340828D+04
   xzyz      -0.105082D+08     -0.529266D+04     -0.655226D+04
   yzyz       0.781278D+07      0.393506D+04      0.487156D+04
   zzyz       0.557228D+07      0.280659D+04      0.347453D+04
   xzzz      -0.191099D+08     -0.962507D+04     -0.119157D+05
   yzzz       0.142909D+08      0.719791D+04      0.891094D+04
   zzzz       0.225005D+08      0.113328D+05      0.140299D+05

 ----------------------------------------------------------------------
 1\1\GINC-FLAME1\SP\RB3LYP\6-311+G(d)\C25H27N1O7S1\ROOT\17-Jan-2021\0\\
 #p B3LYP/6-311+g(d) polar=gamma pop=chelpg density=current NoSymm\\ONL
 _VSNS_0_B3LYP\\0,1\C,0,4.981328,0.071552,10.993252\H,0,5.23719,-0.3211
 52,11.796859\C,0,3.721703,-0.115648,10.538604\H,0,3.115443,-0.622336,1
 1.027606\C,0,3.348624,0.456768,9.338043\H,0,2.486605,0.33696,9.009138\
 C,0,4.260512,1.200576,8.637825\H,0,4.00856,1.584128,7.828959\C,0,5.554
 116,1.39568,9.108582\C,0,6.571241,2.139654,8.393078\H,0,7.424292,2.184
 832,8.762582\C,0,6.352534,2.76224,7.236733\H,0,5.487633,2.713152,6.900
 267\C,0,7.313628,3.510208,6.44003\C,0,6.859881,4.16208,5.285657\H,0,5.
 964942,4.086784,5.044526\C,0,7.706735,4.910298,4.500788\C,0,9.054207,5
 .005312,4.845144\C,0,9.516534,4.350528,5.975355\H,0,10.415511,4.407104
 ,6.20498\C,0,8.65614,3.617536,6.763017\H,0,8.980968,3.189056,7.521586\
 C,0,7.209337,0.995072,10.903999\H,0,7.243593,0.545792,11.752479\H,0,7.
 874112,0.624832,10.31917\H,0,7.37961,1.931072,11.030893\C,0,11.211774,
 5.821504,4.267876\H,0,11.572521,4.932928,4.304859\H,0,11.643778,6.3140
 48,3.566836\H,0,11.360398,6.262464,5.106986\N,0,5.874834,0.814528,10.3
 0602\O,0,7.303978,5.576563,3.386193\O,0,9.824057,5.755027,4.00965\H,0,
 6.491451,5.35808,3.188784\C,0,11.625734,3.489158,8.897037\C,0,11.79932
 1,4.840243,8.824879\H,0,11.333829,5.398848,9.405271\C,0,12.684164,5.39
 3856,7.871531\C,0,12.895367,6.78912,7.750719\H,0,12.443058,7.374848,8.
 313851\C,0,13.756273,7.278336,6.816602\H,0,13.881943,8.196864,6.744115
 \C,0,14.4509,6.418048,5.966807\H,0,15.035548,6.766656,5.332174\C,0,14.
 279507,5.076032,6.059348\H,0,14.754396,4.512768,5.493257\C,0,13.388097
 ,4.52192,7.004971\C,0,13.186172,3.129984,7.116085\H,0,13.649195,2.5517
 44,6.553445\C,0,12.324882,2.624128,8.035244\H,0,12.196412,1.704768,8.0
 95239\O,0,9.413483,3.682848,10.235176\O,0,11.304968,2.659072,11.327088
 \O,0,10.131317,1.509414,9.570298\S,0,10.537122,2.790195,10.108447\O,0,
 3.560232,2.189824,5.300286\H,0,4.022351,2.14656,4.62045\H,0,3.325427,3
 .02016,5.397922\O,0,4.825874,4.922944,2.761915\H,0,4.705227,4.29312,2.
 368577\H,0,4.096599,5.3664,2.843607\\Version=EM64L-G09RevD.01\HF=-1948
 .1725207\RMSD=4.266e-09\Dipole=-6.6867608,-1.2059826,-2.9827816\Polar=
 414.6805391,129.8651331,355.6780001,-105.0274696,-144.3959939,392.8738
 837\HyperPolar=-3375.4576486,-2455.9236993,-2139.6863082,-1968.2054163
 ,2145.4037745,2310.8803356,2103.2968224,-2960.1133541,-2329.1099848,23
 45.6800312\DQPolar=9561.2116213,-2482.2577708,-7078.9538505,4641.58751
 95,4167.3910097,1229.9308093,2437.4119792,3232.9344843,-5670.3464635,6
 970.4233925,-192.5329746,4257.4022657,-5536.6509494,-3681.5273445,9218
 .1782939,-2734.4982775,4814.3492967,423.0375113\Quadrupole=-87.6413393
 ,82.3607196,5.2806197,-43.0362391,-163.0881481,-47.1607387\PG=C01 [X(C
 25H27N1O7S1)]\\@


      HUMANKIND PERIODICALLY GOES THROUGH A SPEEDUP OF ITS AFFAIRS, 
      THEREBY EXPERIENCING THE RACE BETWEEN THE RENEWABLE VITALITY
      OF THE LIVING, AND THE BECKONING VITIATION OF DECADENCE.
      IN THIS PERIODIC RACE, ANY PAUSE BECOMES A LUXURY.
      ONLY THEN CAN ONE REFLECT THAT ALL IS PERMITTED;
      ALL IS POSSIBLE.

                              -- THE APOCRYPHA OF MUAD'DIB
                                 CHILDREN OF DUNE, BY FRANK HERBERT
 Job cpu time:      26 days 14 hours  8 minutes 57.5 seconds.
 File lengths (MBytes):  RWF=   5125 Int=      0 D2E=      0 Chk=    122 Scr=      1
 Normal termination of Gaussian 09 at Sun Jan 17 01:44:09 2021.
Sun Jan 17 01:44:09 -02 2021
