Tue Jan 19 14:23:53 BRST 2021
flame7
 Entering Gaussian System, Link 0=/usr/local/bin/G09/G09d/g09/g09
 Initial command:
 /usr/local/bin/G09/G09d//g09/l1.exe "/work/danielmachado/job-23482/Gau-8783.inp" -scrdir="/work/danielmachado/job-23482/"
 Entering Link 1 = /usr/local/bin/G09/G09d//g09/l1.exe PID=      8785.
  
 Copyright (c) 1988,1990,1992,1993,1995,1998,2003,2009,2013,
            Gaussian, Inc.  All Rights Reserved.
  
 This is part of the Gaussian(R) 09 program.  It is based on
 the Gaussian(R) 03 system (copyright 2003, Gaussian, Inc.),
 the Gaussian(R) 98 system (copyright 1998, Gaussian, Inc.),
 the Gaussian(R) 94 system (copyright 1995, Gaussian, Inc.),
 the Gaussian 92(TM) system (copyright 1992, Gaussian, Inc.),
 the Gaussian 90(TM) system (copyright 1990, Gaussian, Inc.),
 the Gaussian 88(TM) system (copyright 1988, Gaussian, Inc.),
 the Gaussian 86(TM) system (copyright 1986, Carnegie Mellon
 University), and the Gaussian 82(TM) system (copyright 1983,
 Carnegie Mellon University). Gaussian is a federally registered
 trademark of Gaussian, Inc.
  
 This software contains proprietary and confidential information,
 including trade secrets, belonging to Gaussian, Inc.
  
 This software is provided under written license and may be
 used, copied, transmitted, or stored only in accord with that
 written license.
  
 The following legend is applicable only to US Government
 contracts under FAR:
  
                    RESTRICTED RIGHTS LEGEND
  
 Use, reproduction and disclosure by the US Government is
 subject to restrictions as set forth in subparagraphs (a)
 and (c) of the Commercial Computer Software - Restricted
 Rights clause in FAR 52.227-19.
  
 Gaussian, Inc.
 340 Quinnipiac St., Bldg. 40, Wallingford CT 06492
  
  
 ---------------------------------------------------------------
 Warning -- This program may not be used in any manner that
 competes with the business of Gaussian, Inc. or will provide
 assistance to any competitor of Gaussian, Inc.  The licensee
 of this program is prohibited from giving any competitor of
 Gaussian, Inc. access to this program.  By using this program,
 the user acknowledges that Gaussian, Inc. is engaged in the
 business of creating and licensing software in the field of
 computational chemistry and represents and warrants to the
 licensee that it is not a competitor of Gaussian, Inc. and that
 it will not use this program in any manner prohibited above.
 ---------------------------------------------------------------
  

 Cite this work as:
 Gaussian 09, Revision D.01,
 M. J. Frisch, G. W. Trucks, H. B. Schlegel, G. E. Scuseria, 
 M. A. Robb, J. R. Cheeseman, G. Scalmani, V. Barone, B. Mennucci, 
 G. A. Petersson, H. Nakatsuji, M. Caricato, X. Li, H. P. Hratchian, 
 A. F. Izmaylov, J. Bloino, G. Zheng, J. L. Sonnenberg, M. Hada, 
 M. Ehara, K. Toyota, R. Fukuda, J. Hasegawa, M. Ishida, T. Nakajima, 
 Y. Honda, O. Kitao, H. Nakai, T. Vreven, J. A. Montgomery, Jr., 
 J. E. Peralta, F. Ogliaro, M. Bearpark, J. J. Heyd, E. Brothers, 
 K. N. Kudin, V. N. Staroverov, T. Keith, R. Kobayashi, J. Normand, 
 K. Raghavachari, A. Rendell, J. C. Burant, S. S. Iyengar, J. Tomasi, 
 M. Cossi, N. Rega, J. M. Millam, M. Klene, J. E. Knox, J. B. Cross, 
 V. Bakken, C. Adamo, J. Jaramillo, R. Gomperts, R. E. Stratmann, 
 O. Yazyev, A. J. Austin, R. Cammi, C. Pomelli, J. W. Ochterski, 
 R. L. Martin, K. Morokuma, V. G. Zakrzewski, G. A. Voth, 
 P. Salvador, J. J. Dannenberg, S. Dapprich, A. D. Daniels, 
 O. Farkas, J. B. Foresman, J. V. Ortiz, J. Cioslowski, 
 and D. J. Fox, Gaussian, Inc., Wallingford CT, 2013.
 
 ******************************************
 Gaussian 09:  EM64L-G09RevD.01 24-Apr-2013
                19-Jan-2021 
 ******************************************
 %nprocshared=8
 Will use up to    8 processors via shared memory.
 %chk=ONL_VSNS_0_wB97XD.chk
 %mem=40GB
 ------------------------------------------------------------------
 #p wB97XD/6-311+g(d) polar=gamma pop=chelpg density=current NoSymm
 ------------------------------------------------------------------
 1/30=1,38=101,83=1,84=49/1,6;
 2/12=2,15=1,17=6,18=5,40=1/2;
 3/5=4,6=6,7=11,11=2,16=1,25=1,30=1,74=-58/1,2,3;
 4/69=2/1;
 5/5=2,38=5,96=-2,98=1/2;
 8/6=4,10=90,11=11/1;
 10/6=20001,13=10,31=1,60=-2,72=3/2;
 6/7=2,8=2,9=2,10=2,12=2,15=8,20=3,22=-1,28=1/1,2;
 1/38=100,84=49/6(1);
 99/9=1/99;
 3/5=4,6=6,7=11,11=2,14=-3,16=1,25=1,30=1,74=-58/1,2,3;
 4/5=5,16=3,69=2/1;
 5/5=2,38=5,96=-2,98=1/2;
 8/6=4,10=90,11=11/1;
 10/6=20001,13=10,31=1,60=-2,72=3/2;
 6/7=2,8=2,9=2,10=2,12=2,15=8,20=3,22=-1,28=1/1,2;
 1/38=100,84=49/6(-6);
 99/9=1/99;
 Leave Link    1 at Tue Jan 19 14:23:53 2021, MaxMem=  5368709120 cpu:         0.6
 (Enter /usr/local/bin/G09/G09d//g09/l101.exe)
 -----------------
 ONL_VSNS_0_wB97XD
 -----------------
 Symbolic Z-matrix:
 Charge =  0 Multiplicity = 1
 C                     4.98133   0.07155   10.99325 
 H                     5.23719  -0.32115   11.79686 
 C                     3.7217   -0.11565   10.5386 
 H                     3.11544  -0.62234   11.02761 
 C                     3.34862   0.45677   9.33804 
 H                     2.4866    0.33696   9.00914 
 C                     4.26051   1.20058   8.63782 
 H                     4.00856   1.58413   7.82896 
 C                     5.55412   1.39568   9.10858 
 C                     6.57124   2.13965   8.39308 
 H                     7.42429   2.18483   8.76258 
 C                     6.35253   2.76224   7.23673 
 H                     5.48763   2.71315   6.90027 
 C                     7.31363   3.51021   6.44003 
 C                     6.85988   4.16208   5.28566 
 H                     5.96494   4.08678   5.04453 
 C                     7.70674   4.9103    4.50079 
 C                     9.05421   5.00531   4.84514 
 C                     9.51653   4.35053   5.97536 
 H                     10.41551   4.4071    6.20498 
 C                     8.65614   3.61754   6.76302 
 H                     8.98097   3.18906   7.52159 
 C                     7.20934   0.99507   10.904 
 H                     7.24359   0.54579   11.75248 
 H                     7.87411   0.62483   10.31917 
 H                     7.37961   1.93107   11.03089 
 C                     11.21177   5.8215    4.26788 
 H                     11.57252   4.93293   4.30486 
 H                     11.64378   6.31405   3.56684 
 H                     11.3604   6.26246   5.10699 
 N                     5.87483   0.81453   10.30602 
 O                     7.30398   5.57656   3.38619 
 O                     9.82406   5.75503   4.00965 
 H                     6.49145   5.35808   3.18878 
 C                     11.62573   3.48916   8.89704 
 C                     11.79932   4.84024   8.82488 
 H                     11.33383   5.39885   9.40527 
 C                     12.68416   5.39386   7.87153 
 C                     12.89537   6.78912   7.75072 
 H                     12.44306   7.37485   8.31385 
 C                     13.75627   7.27834   6.8166 
 H                     13.88194   8.19686   6.74412 
 C                     14.4509   6.41805   5.96681 
 H                     15.03555   6.76666   5.33217 
 C                     14.27951   5.07603   6.05935 
 H                     14.7544   4.51277   5.49326 
 C                     13.3881   4.52192   7.00497 
 C                     13.18617   3.12998   7.11608 
 H                     13.6492   2.55174   6.55344 
 C                     12.32488   2.62413   8.03524 
 H                     12.19641   1.70477   8.09524 
 O                     9.41348   3.68285   10.23518 
 O                     11.30497   2.65907   11.32709 
 O                     10.13132   1.50941   9.5703 
 S                     10.53712   2.7902    10.10845 
 O                     3.56023   2.18982   5.30029 
 H                     4.02235   2.14656   4.62045 
 H                     3.32543   3.02016   5.39792 
 O                     4.82587   4.92294   2.76192 
 H                     4.70523   4.29312   2.36858 
 H                     4.0966    5.3664    2.84361 
 
 NAtoms=     61 NQM=       61 NQMF=       0 NMMI=      0 NMMIF=      0
                NMic=       0 NMicF=      0.
                    Isotopes and Nuclear Properties:
 (Nuclear quadrupole moments (NQMom) in fm**2, nuclear magnetic moments (NMagM)
  in nuclear magnetons)

  Atom         1           2           3           4           5           6           7           8           9          10
 IAtWgt=          12           1          12           1          12           1          12           1          12          12
 AtmWgt=  12.0000000   1.0078250  12.0000000   1.0078250  12.0000000   1.0078250  12.0000000   1.0078250  12.0000000  12.0000000
 NucSpn=           0           1           0           1           0           1           0           1           0           0
 AtZEff=   0.0000000   0.0000000   0.0000000   0.0000000   0.0000000   0.0000000   0.0000000   0.0000000   0.0000000   0.0000000
 NQMom=    0.0000000   0.0000000   0.0000000   0.0000000   0.0000000   0.0000000   0.0000000   0.0000000   0.0000000   0.0000000
 NMagM=    0.0000000   2.7928460   0.0000000   2.7928460   0.0000000   2.7928460   0.0000000   2.7928460   0.0000000   0.0000000
 AtZNuc=   6.0000000   1.0000000   6.0000000   1.0000000   6.0000000   1.0000000   6.0000000   1.0000000   6.0000000   6.0000000

  Atom        11          12          13          14          15          16          17          18          19          20
 IAtWgt=           1          12           1          12          12           1          12          12          12           1
 AtmWgt=   1.0078250  12.0000000   1.0078250  12.0000000  12.0000000   1.0078250  12.0000000  12.0000000  12.0000000   1.0078250
 NucSpn=           1           0           1           0           0           1           0           0           0           1
 AtZEff=   0.0000000   0.0000000   0.0000000   0.0000000   0.0000000   0.0000000   0.0000000   0.0000000   0.0000000   0.0000000
 NQMom=    0.0000000   0.0000000   0.0000000   0.0000000   0.0000000   0.0000000   0.0000000   0.0000000   0.0000000   0.0000000
 NMagM=    2.7928460   0.0000000   2.7928460   0.0000000   0.0000000   2.7928460   0.0000000   0.0000000   0.0000000   2.7928460
 AtZNuc=   1.0000000   6.0000000   1.0000000   6.0000000   6.0000000   1.0000000   6.0000000   6.0000000   6.0000000   1.0000000

  Atom        21          22          23          24          25          26          27          28          29          30
 IAtWgt=          12           1          12           1           1           1          12           1           1           1
 AtmWgt=  12.0000000   1.0078250  12.0000000   1.0078250   1.0078250   1.0078250  12.0000000   1.0078250   1.0078250   1.0078250
 NucSpn=           0           1           0           1           1           1           0           1           1           1
 AtZEff=   0.0000000   0.0000000   0.0000000   0.0000000   0.0000000   0.0000000   0.0000000   0.0000000   0.0000000   0.0000000
 NQMom=    0.0000000   0.0000000   0.0000000   0.0000000   0.0000000   0.0000000   0.0000000   0.0000000   0.0000000   0.0000000
 NMagM=    0.0000000   2.7928460   0.0000000   2.7928460   2.7928460   2.7928460   0.0000000   2.7928460   2.7928460   2.7928460
 AtZNuc=   6.0000000   1.0000000   6.0000000   1.0000000   1.0000000   1.0000000   6.0000000   1.0000000   1.0000000   1.0000000

  Atom        31          32          33          34          35          36          37          38          39          40
 IAtWgt=          14          16          16           1          12          12           1          12          12           1
 AtmWgt=  14.0030740  15.9949146  15.9949146   1.0078250  12.0000000  12.0000000   1.0078250  12.0000000  12.0000000   1.0078250
 NucSpn=           2           0           0           1           0           0           1           0           0           1
 AtZEff=   0.0000000   0.0000000   0.0000000   0.0000000   0.0000000   0.0000000   0.0000000   0.0000000   0.0000000   0.0000000
 NQMom=    2.0440000   0.0000000   0.0000000   0.0000000   0.0000000   0.0000000   0.0000000   0.0000000   0.0000000   0.0000000
 NMagM=    0.4037610   0.0000000   0.0000000   2.7928460   0.0000000   0.0000000   2.7928460   0.0000000   0.0000000   2.7928460
 AtZNuc=   7.0000000   8.0000000   8.0000000   1.0000000   6.0000000   6.0000000   1.0000000   6.0000000   6.0000000   1.0000000

  Atom        41          42          43          44          45          46          47          48          49          50
 IAtWgt=          12           1          12           1          12           1          12          12           1          12
 AtmWgt=  12.0000000   1.0078250  12.0000000   1.0078250  12.0000000   1.0078250  12.0000000  12.0000000   1.0078250  12.0000000
 NucSpn=           0           1           0           1           0           1           0           0           1           0
 AtZEff=   0.0000000   0.0000000   0.0000000   0.0000000   0.0000000   0.0000000   0.0000000   0.0000000   0.0000000   0.0000000
 NQMom=    0.0000000   0.0000000   0.0000000   0.0000000   0.0000000   0.0000000   0.0000000   0.0000000   0.0000000   0.0000000
 NMagM=    0.0000000   2.7928460   0.0000000   2.7928460   0.0000000   2.7928460   0.0000000   0.0000000   2.7928460   0.0000000
 AtZNuc=   6.0000000   1.0000000   6.0000000   1.0000000   6.0000000   1.0000000   6.0000000   6.0000000   1.0000000   6.0000000

  Atom        51          52          53          54          55          56          57          58          59          60
 IAtWgt=           1          16          16          16          32          16           1           1          16           1
 AtmWgt=   1.0078250  15.9949146  15.9949146  15.9949146  31.9720718  15.9949146   1.0078250   1.0078250  15.9949146   1.0078250
 NucSpn=           1           0           0           0           0           0           1           1           0           1
 AtZEff=   0.0000000   0.0000000   0.0000000   0.0000000   0.0000000   0.0000000   0.0000000   0.0000000   0.0000000   0.0000000
 NQMom=    0.0000000   0.0000000   0.0000000   0.0000000   0.0000000   0.0000000   0.0000000   0.0000000   0.0000000   0.0000000
 NMagM=    2.7928460   0.0000000   0.0000000   0.0000000   0.0000000   0.0000000   2.7928460   2.7928460   0.0000000   2.7928460
 AtZNuc=   1.0000000   8.0000000   8.0000000   8.0000000  16.0000000   8.0000000   1.0000000   1.0000000   8.0000000   1.0000000

  Atom        61
 IAtWgt=           1
 AtmWgt=   1.0078250
 NucSpn=           1
 AtZEff=   0.0000000
 NQMom=    0.0000000
 NMagM=    2.7928460
 AtZNuc=   1.0000000
 Using perturbation frequencies:    0.000000    0.072000
 Leave Link  101 at Tue Jan 19 14:23:54 2021, MaxMem=  5368709120 cpu:         1.0
 (Enter /usr/local/bin/G09/G09d//g09/l106.exe)
 Differentiate once with respect to electric field.
 Nuclear step= 0.001000 Angstroms, electric field step= 0.000333 atomic units, NStep=1.
 Leave Link  106 at Tue Jan 19 14:23:54 2021, MaxMem=  5368709120 cpu:         0.0
 (Enter /usr/local/bin/G09/G09d//g09/l202.exe)
 Symmetry turned off by external request.
 Stoichiometry    C25H27NO7S
 Framework group  C1[X(C25H27NO7S)]
 Deg. of freedom   177
 Full point group                 C1      NOp   1
                          Input orientation:                          
 ---------------------------------------------------------------------
 Center     Atomic      Atomic             Coordinates (Angstroms)
 Number     Number       Type             X           Y           Z
 ---------------------------------------------------------------------
      1          6           0        4.981328    0.071552   10.993252
      2          1           0        5.237190   -0.321152   11.796859
      3          6           0        3.721703   -0.115648   10.538604
      4          1           0        3.115443   -0.622336   11.027606
      5          6           0        3.348624    0.456768    9.338043
      6          1           0        2.486605    0.336960    9.009138
      7          6           0        4.260512    1.200576    8.637825
      8          1           0        4.008560    1.584128    7.828959
      9          6           0        5.554116    1.395680    9.108582
     10          6           0        6.571241    2.139654    8.393078
     11          1           0        7.424292    2.184832    8.762582
     12          6           0        6.352534    2.762240    7.236733
     13          1           0        5.487633    2.713152    6.900267
     14          6           0        7.313628    3.510208    6.440030
     15          6           0        6.859881    4.162080    5.285657
     16          1           0        5.964942    4.086784    5.044526
     17          6           0        7.706735    4.910298    4.500788
     18          6           0        9.054207    5.005312    4.845144
     19          6           0        9.516534    4.350528    5.975355
     20          1           0       10.415511    4.407104    6.204980
     21          6           0        8.656140    3.617536    6.763017
     22          1           0        8.980968    3.189056    7.521586
     23          6           0        7.209337    0.995072   10.903999
     24          1           0        7.243593    0.545792   11.752479
     25          1           0        7.874112    0.624832   10.319170
     26          1           0        7.379610    1.931072   11.030893
     27          6           0       11.211774    5.821504    4.267876
     28          1           0       11.572521    4.932928    4.304859
     29          1           0       11.643778    6.314048    3.566836
     30          1           0       11.360398    6.262464    5.106986
     31          7           0        5.874834    0.814528   10.306020
     32          8           0        7.303978    5.576563    3.386193
     33          8           0        9.824057    5.755027    4.009650
     34          1           0        6.491451    5.358080    3.188784
     35          6           0       11.625734    3.489158    8.897037
     36          6           0       11.799321    4.840243    8.824879
     37          1           0       11.333829    5.398848    9.405271
     38          6           0       12.684164    5.393856    7.871531
     39          6           0       12.895367    6.789120    7.750719
     40          1           0       12.443058    7.374848    8.313851
     41          6           0       13.756273    7.278336    6.816602
     42          1           0       13.881943    8.196864    6.744115
     43          6           0       14.450900    6.418048    5.966807
     44          1           0       15.035548    6.766656    5.332174
     45          6           0       14.279507    5.076032    6.059348
     46          1           0       14.754396    4.512768    5.493257
     47          6           0       13.388097    4.521920    7.004971
     48          6           0       13.186172    3.129984    7.116085
     49          1           0       13.649195    2.551744    6.553445
     50          6           0       12.324882    2.624128    8.035244
     51          1           0       12.196412    1.704768    8.095239
     52          8           0        9.413483    3.682848   10.235176
     53          8           0       11.304968    2.659072   11.327088
     54          8           0       10.131317    1.509414    9.570298
     55         16           0       10.537122    2.790195   10.108447
     56          8           0        3.560232    2.189824    5.300286
     57          1           0        4.022351    2.146560    4.620450
     58          1           0        3.325427    3.020160    5.397922
     59          8           0        4.825874    4.922944    2.761915
     60          1           0        4.705227    4.293120    2.368577
     61          1           0        4.096599    5.366400    2.843607
 ---------------------------------------------------------------------
 Rotational constants (GHZ):      0.1356477      0.0772839      0.0516543
 Leave Link  202 at Tue Jan 19 14:23:54 2021, MaxMem=  5368709120 cpu:         0.0
 (Enter /usr/local/bin/G09/G09d//g09/l301.exe)
 Standard basis: 6-311+G(d) (5D, 7F)
 Ernie: Thresh=  0.10000D-02 Tol=  0.10000D-05 Strict=F.
   837 basis functions,  1373 primitive gaussians,   871 cartesian basis functions
   128 alpha electrons      128 beta electrons
       nuclear repulsion energy      3776.8843146181 Hartrees.
 IExCor= 4639 DFT=T Ex+Corr=wB97XD ExCW=0 ScaHFX=  1.000000
 ScaDFX=  1.000000  1.000000  1.000000  1.000000 ScalE2=  1.000000  1.000000
 IRadAn=      0 IRanWt=     -1 IRanGd=            0 ICorTp=0 IEmpDi=121
  HFx wShort=  0.000000 wLong=  0.200000 cFull=  0.222036 cShort=  0.000000 cLong=  0.777964
  DFx wShort=  0.000000 wLong=  0.200000 cFull=  0.000000 cShort=  0.000000 cLong=  1.000000
 NAtoms=   61 NActive=   61 NUniq=   61 SFac= 1.00D+00 NAtFMM=   60 NAOKFM=T Big=T
 Integral buffers will be    131072 words long.
 Raffenetti 2 integral format.
 Two-electron integral symmetry is turned off.
 R6Disp:  Grimme-D2 Dispersion energy=       -0.0518381513 Hartrees.
 Nuclear repulsion after empirical dispersion term =     3776.8324764668 Hartrees.
 Leave Link  301 at Tue Jan 19 14:23:54 2021, MaxMem=  5368709120 cpu:         0.6
 (Enter /usr/local/bin/G09/G09d//g09/l302.exe)
 NPDir=0 NMtPBC=     1 NCelOv=     1 NCel=       1 NClECP=     1 NCelD=      1
         NCelK=      1 NCelE2=     1 NClLst=     1 CellRange=     0.0.
 One-electron integrals computed using PRISM.
 NBasis=   837 RedAO= T EigKep=  1.14D-06  NBF=   837
 NBsUse=   827 1.00D-06 EigRej=  8.99D-07 NBFU=   827
 Precomputing XC quadrature grid using
 IXCGrd= 4 IRadAn=           0 IRanWt=          -1 IRanGd=           0 AccXCQ= 0.00D+00.
 Generated NRdTot=       0 NPtTot=           0 NUsed=           0 NTot=          32
 NSgBfM=   853   853   853   853   853 MxSgAt=    61 MxSgA2=    61.
 Leave Link  302 at Tue Jan 19 14:23:56 2021, MaxMem=  5368709120 cpu:        15.9
 (Enter /usr/local/bin/G09/G09d//g09/l303.exe)
 DipDrv:  MaxL=1.
 Leave Link  303 at Tue Jan 19 14:23:57 2021, MaxMem=  5368709120 cpu:         1.8
 (Enter /usr/local/bin/G09/G09d//g09/l401.exe)
 ExpMin= 4.05D-02 ExpMax= 9.34D+04 ExpMxC= 3.17D+03 IAcc=2 IRadAn=         4 AccDes= 0.00D+00
 Harris functional with IExCor= 4639 and IRadAn=       4 diagonalized for initial guess.
 HarFok:  IExCor= 4639 AccDes= 0.00D+00 IRadAn=         4 IDoV= 1 UseB2=F ITyADJ=14
 ICtDFT=  3500011 ScaDFX=  1.000000  1.000000  1.000000  1.000000
 FoFCou: FMM=F IPFlag=           0 FMFlag=      100000 FMFlg1=        2001
         NFxFlg=           0 DoJE=T BraDBF=F KetDBF=T FulRan=T
         wScrn=  0.000000 ICntrl=     500 IOpCl=  0 I1Cent=   200000004 NGrid=           0
         NMat0=    1 NMatS0=      1 NMatT0=    0 NMatD0=    1 NMtDS0=    0 NMtDT0=    0
 Symmetry not used in FoFCou.
 Harris En= -1875.62325290585    
 JPrj=0 DoOrth=F DoCkMO=F.
 Leave Link  401 at Tue Jan 19 14:24:04 2021, MaxMem=  5368709120 cpu:        58.0
 (Enter /usr/local/bin/G09/G09d//g09/l502.exe)
 Closed shell SCF:
 Using DIIS extrapolation, IDIIS=  1040.
 Two-electron integral symmetry not used.
 IVT=     2306789 IEndB=     2306789 NGot=  5368709120 MDV=  5367178484
 LenX=  5367178484 LenY=  5366418972
 Requested convergence on RMS density matrix=1.00D-08 within 128 cycles.
 Requested convergence on MAX density matrix=1.00D-06.
 Requested convergence on             energy=1.00D-06.
 No special actions if energy rises.
 Fock matrices will be formed incrementally for  20 cycles.

 Cycle   1  Pass 1  IDiag  1:
 FoFJK:  IHMeth= 1 ICntrl=       0 DoSepK=T KAlg= 0 I1Cent=   0 FoldK=F
 IRaf=         1 NMat=   1 IRICut=       1 DoRegI=T DoRafI=F ISym2E= 0.
 FoFCou: FMM=T IPFlag=           0 FMFlag=      100000 FMFlg1=        2001
         NFxFlg=           0 DoJE=T BraDBF=F KetDBF=F FulRan=T
         wScrn=  0.000000 ICntrl=     500 IOpCl=  0 I1Cent=           0 NGrid=           0
         NMat0=    1 NMatS0=      1 NMatT0=    0 NMatD0=    1 NMtDS0=    0 NMtDT0=    0
 Symmetry not used in FoFCou.
 FMM levels:  10  Number of levels for PrismC:   9
 E= -1946.89151518817    
 DIIS: error= 8.81D-02 at cycle   1 NSaved=   1.
 NSaved= 1 IEnMin= 1 EnMin= -1946.89151518817     IErMin= 1 ErrMin= 8.81D-02
 ErrMax= 8.81D-02  0.00D+00 EMaxC= 1.00D-01 BMatC= 4.63D+00 BMatP= 4.63D+00
 IDIUse=3 WtCom= 1.19D-01 WtEn= 8.81D-01
 Coeff-Com:  0.100D+01
 Coeff-En:   0.100D+01
 Coeff:      0.100D+01
 Gap=     0.289 Goal=   None    Shift=    0.000
 GapD=    0.289 DampG=1.000 DampE=0.500 DampFc=0.5000 IDamp=-1.
 Damping current iteration by 5.00D-01
 RMSDP=3.25D-02 MaxDP=5.82D+00              OVMax= 2.24D-01

 Cycle   2  Pass 1  IDiag  1:
 RMSU=  1.26D-02    CP:  9.21D-01
 E= -1947.23183851995     Delta-E=       -0.340323331776 Rises=F Damp=T
 DIIS: error= 3.92D-02 at cycle   2 NSaved=   2.
 NSaved= 2 IEnMin= 2 EnMin= -1947.23183851995     IErMin= 2 ErrMin= 3.92D-02
 ErrMax= 3.92D-02  0.00D+00 EMaxC= 1.00D-01 BMatC= 8.69D-01 BMatP= 4.63D+00
 IDIUse=3 WtCom= 6.08D-01 WtEn= 3.92D-01
 Coeff-Com: -0.483D+00 0.148D+01
 Coeff-En:   0.000D+00 0.100D+01
 Coeff:     -0.294D+00 0.129D+01
 Gap=     0.268 Goal=   None    Shift=    0.000
 RMSDP=2.62D-02 MaxDP=4.69D+00 DE=-3.40D-01 OVMax= 2.43D-01

 Cycle   3  Pass 1  IDiag  1:
 RMSU=  1.24D-02    CP:  7.45D-01  8.25D-01
 E= -1947.46012807606     Delta-E=       -0.228289556117 Rises=F Damp=F
 DIIS: error= 2.39D-02 at cycle   3 NSaved=   3.
 NSaved= 3 IEnMin= 3 EnMin= -1947.46012807606     IErMin= 3 ErrMin= 2.39D-02
 ErrMax= 2.39D-02  0.00D+00 EMaxC= 1.00D-01 BMatC= 2.14D-01 BMatP= 8.69D-01
 IDIUse=3 WtCom= 7.61D-01 WtEn= 2.39D-01
 Coeff-Com: -0.285D+00 0.659D+00 0.626D+00
 Coeff-En:   0.000D+00 0.000D+00 0.100D+01
 Coeff:     -0.217D+00 0.501D+00 0.716D+00
 Gap=     0.257 Goal=   None    Shift=    0.000
 RMSDP=7.37D-03 MaxDP=1.06D+00 DE=-2.28D-01 OVMax= 1.23D-01

 Cycle   4  Pass 1  IDiag  1:
 RMSU=  3.48D-03    CP:  7.42D-01  1.28D+00  7.53D-01
 E= -1947.60415889391     Delta-E=       -0.144030817847 Rises=F Damp=F
 DIIS: error= 8.64D-03 at cycle   4 NSaved=   4.
 NSaved= 4 IEnMin= 4 EnMin= -1947.60415889391     IErMin= 4 ErrMin= 8.64D-03
 ErrMax= 8.64D-03  0.00D+00 EMaxC= 1.00D-01 BMatC= 4.33D-02 BMatP= 2.14D-01
 IDIUse=3 WtCom= 9.14D-01 WtEn= 8.64D-02
 Coeff-Com: -0.729D-01 0.164D+00 0.373D+00 0.536D+00
 Coeff-En:   0.000D+00 0.000D+00 0.157D+00 0.843D+00
 Coeff:     -0.666D-01 0.149D+00 0.354D+00 0.563D+00
 Gap=     0.217 Goal=   None    Shift=    0.000
 RMSDP=2.16D-03 MaxDP=2.12D-01 DE=-1.44D-01 OVMax= 3.95D-02

 Cycle   5  Pass 1  IDiag  1:
 RMSU=  8.20D-04    CP:  7.39D-01  1.17D+00  8.16D-01  6.65D-01
 E= -1947.63859955070     Delta-E=       -0.034440656792 Rises=F Damp=F
 DIIS: error= 1.41D-03 at cycle   5 NSaved=   5.
 NSaved= 5 IEnMin= 5 EnMin= -1947.63859955070     IErMin= 5 ErrMin= 1.41D-03
 ErrMax= 1.41D-03  0.00D+00 EMaxC= 1.00D-01 BMatC= 4.10D-04 BMatP= 4.33D-02
 IDIUse=3 WtCom= 9.86D-01 WtEn= 1.41D-02
 Coeff-Com:  0.526D-03-0.177D-02 0.561D-01 0.163D+00 0.782D+00
 Coeff-En:   0.000D+00 0.000D+00 0.000D+00 0.000D+00 0.100D+01
 Coeff:      0.518D-03-0.174D-02 0.554D-01 0.161D+00 0.785D+00
 Gap=     0.215 Goal=   None    Shift=    0.000
 RMSDP=7.34D-04 MaxDP=9.26D-02 DE=-3.44D-02 OVMax= 5.75D-03

 Cycle   6  Pass 1  IDiag  1:
 RMSU=  3.36D-04    CP:  7.35D-01  1.14D+00  8.37D-01  7.07D-01  8.84D-01
 E= -1947.63901372512     Delta-E=       -0.000414174414 Rises=F Damp=F
 DIIS: error= 3.71D-04 at cycle   6 NSaved=   6.
 NSaved= 6 IEnMin= 6 EnMin= -1947.63901372512     IErMin= 6 ErrMin= 3.71D-04
 ErrMax= 3.71D-04  0.00D+00 EMaxC= 1.00D-01 BMatC= 8.05D-05 BMatP= 4.10D-04
 IDIUse=3 WtCom= 9.96D-01 WtEn= 3.71D-03
 Coeff-Com:  0.685D-02-0.153D-01-0.178D-01-0.451D-02 0.327D+00 0.704D+00
 Coeff-En:   0.000D+00 0.000D+00 0.000D+00 0.000D+00 0.000D+00 0.100D+01
 Coeff:      0.682D-02-0.153D-01-0.177D-01-0.449D-02 0.326D+00 0.705D+00
 Gap=     0.214 Goal=   None    Shift=    0.000
 RMSDP=1.81D-04 MaxDP=1.75D-02 DE=-4.14D-04 OVMax= 3.91D-03

 Cycle   7  Pass 1  IDiag  1:
 RMSU=  1.01D-04    CP:  7.36D-01  1.15D+00  8.42D-01  7.21D-01  1.00D+00
                    CP:  8.58D-01
 E= -1947.63910219140     Delta-E=       -0.000088466283 Rises=F Damp=F
 DIIS: error= 1.37D-04 at cycle   7 NSaved=   7.
 NSaved= 7 IEnMin= 7 EnMin= -1947.63910219140     IErMin= 7 ErrMin= 1.37D-04
 ErrMax= 1.37D-04  0.00D+00 EMaxC= 1.00D-01 BMatC= 8.40D-06 BMatP= 8.05D-05
 IDIUse=3 WtCom= 9.99D-01 WtEn= 1.37D-03
 Coeff-Com:  0.237D-02-0.523D-02-0.146D-01-0.260D-01 0.269D-01 0.277D+00
 Coeff-Com:  0.739D+00
 Coeff-En:   0.000D+00 0.000D+00 0.000D+00 0.000D+00 0.000D+00 0.000D+00
 Coeff-En:   0.100D+01
 Coeff:      0.237D-02-0.522D-02-0.146D-01-0.259D-01 0.269D-01 0.277D+00
 Coeff:      0.739D+00
 Gap=     0.215 Goal=   None    Shift=    0.000
 RMSDP=8.78D-05 MaxDP=1.18D-02 DE=-8.85D-05 OVMax= 1.52D-03

 Cycle   8  Pass 1  IDiag  1:
 RMSU=  3.07D-05    CP:  7.35D-01  1.15D+00  8.43D-01  7.17D-01  1.02D+00
                    CP:  1.03D+00  9.15D-01
 E= -1947.63911511800     Delta-E=       -0.000012926603 Rises=F Damp=F
 DIIS: error= 4.93D-05 at cycle   8 NSaved=   8.
 NSaved= 8 IEnMin= 8 EnMin= -1947.63911511800     IErMin= 8 ErrMin= 4.93D-05
 ErrMax= 4.93D-05  0.00D+00 EMaxC= 1.00D-01 BMatC= 7.75D-07 BMatP= 8.40D-06
 IDIUse=1 WtCom= 1.00D+00 WtEn= 0.00D+00
 Coeff-Com: -0.162D-03 0.372D-03-0.149D-02-0.609D-02-0.331D-01-0.148D-01
 Coeff-Com:  0.176D+00 0.879D+00
 Coeff:     -0.162D-03 0.372D-03-0.149D-02-0.609D-02-0.331D-01-0.148D-01
 Coeff:      0.176D+00 0.879D+00
 Gap=     0.215 Goal=   None    Shift=    0.000
 RMSDP=2.40D-05 MaxDP=3.35D-03 DE=-1.29D-05 OVMax= 9.96D-04

 Cycle   9  Pass 1  IDiag  1:
 RMSU=  1.58D-05    CP:  7.35D-01  1.15D+00  8.43D-01  7.16D-01  1.03D+00
                    CP:  1.04D+00  1.02D+00  9.24D-01
 E= -1947.63911736306     Delta-E=       -0.000002245059 Rises=F Damp=F
 DIIS: error= 2.57D-05 at cycle   9 NSaved=   9.
 NSaved= 9 IEnMin= 9 EnMin= -1947.63911736306     IErMin= 9 ErrMin= 2.57D-05
 ErrMax= 2.57D-05  0.00D+00 EMaxC= 1.00D-01 BMatC= 2.62D-07 BMatP= 7.75D-07
 IDIUse=1 WtCom= 1.00D+00 WtEn= 0.00D+00
 Coeff-Com: -0.505D-03 0.112D-02 0.232D-02 0.257D-02-0.213D-01-0.670D-01
 Coeff-Com: -0.810D-01 0.416D+00 0.748D+00
 Coeff:     -0.505D-03 0.112D-02 0.232D-02 0.257D-02-0.213D-01-0.670D-01
 Coeff:     -0.810D-01 0.416D+00 0.748D+00
 Gap=     0.215 Goal=   None    Shift=    0.000
 RMSDP=1.68D-05 MaxDP=2.79D-03 DE=-2.25D-06 OVMax= 5.56D-04

 Cycle  10  Pass 1  IDiag  1:
 RMSU=  7.40D-06    CP:  7.35D-01  1.15D+00  8.44D-01  7.16D-01  1.03D+00
                    CP:  1.06D+00  1.03D+00  1.20D+00  8.33D-01
 E= -1947.63911795198     Delta-E=       -0.000000588917 Rises=F Damp=F
 DIIS: error= 1.20D-05 at cycle  10 NSaved=  10.
 NSaved=10 IEnMin=10 EnMin= -1947.63911795198     IErMin=10 ErrMin= 1.20D-05
 ErrMax= 1.20D-05  0.00D+00 EMaxC= 1.00D-01 BMatC= 2.17D-08 BMatP= 2.62D-07
 IDIUse=1 WtCom= 1.00D+00 WtEn= 0.00D+00
 Coeff-Com: -0.111D-03 0.245D-03 0.780D-03 0.135D-02-0.763D-03-0.142D-01
 Coeff-Com: -0.429D-01-0.140D-01 0.181D+00 0.888D+00
 Coeff:     -0.111D-03 0.245D-03 0.780D-03 0.135D-02-0.763D-03-0.142D-01
 Coeff:     -0.429D-01-0.140D-01 0.181D+00 0.888D+00
 Gap=     0.215 Goal=   None    Shift=    0.000
 RMSDP=5.90D-06 MaxDP=4.84D-04 DE=-5.89D-07 OVMax= 2.18D-04

 Cycle  11  Pass 1  IDiag  1:
 RMSU=  3.49D-06    CP:  7.35D-01  1.15D+00  8.44D-01  7.16D-01  1.03D+00
                    CP:  1.06D+00  1.04D+00  1.22D+00  1.10D+00  9.86D-01
 E= -1947.63911803312     Delta-E=       -0.000000081142 Rises=F Damp=F
 DIIS: error= 2.82D-06 at cycle  11 NSaved=  11.
 NSaved=11 IEnMin=11 EnMin= -1947.63911803312     IErMin=11 ErrMin= 2.82D-06
 ErrMax= 2.82D-06  0.00D+00 EMaxC= 1.00D-01 BMatC= 8.29D-09 BMatP= 2.17D-08
 IDIUse=1 WtCom= 1.00D+00 WtEn= 0.00D+00
 Coeff-Com:  0.455D-04-0.103D-03-0.113D-03 0.103D-03 0.452D-02 0.861D-02
 Coeff-Com: -0.126D-02-0.102D+00-0.858D-01 0.429D+00 0.747D+00
 Coeff:      0.455D-04-0.103D-03-0.113D-03 0.103D-03 0.452D-02 0.861D-02
 Coeff:     -0.126D-02-0.102D+00-0.858D-01 0.429D+00 0.747D+00
 Gap=     0.215 Goal=   None    Shift=    0.000
 RMSDP=2.65D-06 MaxDP=2.46D-04 DE=-8.11D-08 OVMax= 9.39D-05

 Cycle  12  Pass 1  IDiag  1:
 RMSU=  1.01D-06    CP:  7.35D-01  1.15D+00  8.44D-01  7.16D-01  1.03D+00
                    CP:  1.06D+00  1.04D+00  1.25D+00  1.06D+00  1.22D+00
                    CP:  8.50D-01
 E= -1947.63911805236     Delta-E=       -0.000000019238 Rises=F Damp=F
 DIIS: error= 1.44D-06 at cycle  12 NSaved=  12.
 NSaved=12 IEnMin=12 EnMin= -1947.63911805236     IErMin=12 ErrMin= 1.44D-06
 ErrMax= 1.44D-06  0.00D+00 EMaxC= 1.00D-01 BMatC= 8.92D-10 BMatP= 8.29D-09
 IDIUse=1 WtCom= 1.00D+00 WtEn= 0.00D+00
 Coeff-Com:  0.332D-04-0.736D-04-0.165D-03-0.156D-03 0.165D-02 0.525D-02
 Coeff-Com:  0.686D-02-0.328D-01-0.580D-01 0.153D-01 0.226D+00 0.836D+00
 Coeff:      0.332D-04-0.736D-04-0.165D-03-0.156D-03 0.165D-02 0.525D-02
 Coeff:      0.686D-02-0.328D-01-0.580D-01 0.153D-01 0.226D+00 0.836D+00
 Gap=     0.215 Goal=   None    Shift=    0.000
 RMSDP=1.11D-06 MaxDP=9.38D-05 DE=-1.92D-08 OVMax= 3.56D-05

 Cycle  13  Pass 1  IDiag  1:
 RMSU=  4.28D-07    CP:  7.35D-01  1.15D+00  8.44D-01  7.15D-01  1.03D+00
                    CP:  1.06D+00  1.04D+00  1.24D+00  1.09D+00  1.22D+00
                    CP:  1.05D+00  9.46D-01
 E= -1947.63911805519     Delta-E=       -0.000000002832 Rises=F Damp=F
 DIIS: error= 7.99D-07 at cycle  13 NSaved=  13.
 NSaved=13 IEnMin=13 EnMin= -1947.63911805519     IErMin=13 ErrMin= 7.99D-07
 ErrMax= 7.99D-07  0.00D+00 EMaxC= 1.00D-01 BMatC= 2.49D-10 BMatP= 8.92D-10
 IDIUse=1 WtCom= 1.00D+00 WtEn= 0.00D+00
 Coeff-Com:  0.487D-05-0.104D-04-0.494D-04-0.888D-04-0.360D-03 0.306D-03
 Coeff-Com:  0.347D-02 0.885D-02-0.660D-02-0.861D-01-0.752D-01 0.384D+00
 Coeff-Com:  0.772D+00
 Coeff:      0.487D-05-0.104D-04-0.494D-04-0.888D-04-0.360D-03 0.306D-03
 Coeff:      0.347D-02 0.885D-02-0.660D-02-0.861D-01-0.752D-01 0.384D+00
 Coeff:      0.772D+00
 Gap=     0.215 Goal=   None    Shift=    0.000
 RMSDP=4.72D-07 MaxDP=4.81D-05 DE=-2.83D-09 OVMax= 1.60D-05

 Cycle  14  Pass 1  IDiag  1:
 RMSU=  1.69D-07    CP:  7.35D-01  1.15D+00  8.44D-01  7.15D-01  1.03D+00
                    CP:  1.06D+00  1.04D+00  1.24D+00  1.08D+00  1.25D+00
                    CP:  1.04D+00  1.16D+00  9.40D-01
 E= -1947.63911805569     Delta-E=       -0.000000000497 Rises=F Damp=F
 DIIS: error= 1.91D-07 at cycle  14 NSaved=  14.
 NSaved=14 IEnMin=14 EnMin= -1947.63911805569     IErMin=14 ErrMin= 1.91D-07
 ErrMax= 1.91D-07  0.00D+00 EMaxC= 1.00D-01 BMatC= 2.50D-11 BMatP= 2.49D-10
 IDIUse=1 WtCom= 1.00D+00 WtEn= 0.00D+00
 Coeff-Com: -0.155D-05 0.349D-05 0.785D-06-0.158D-04-0.294D-03-0.468D-03
 Coeff-Com:  0.339D-03 0.603D-02 0.361D-02-0.264D-01-0.514D-01 0.449D-02
 Coeff-Com:  0.246D+00 0.818D+00
 Coeff:     -0.155D-05 0.349D-05 0.785D-06-0.158D-04-0.294D-03-0.468D-03
 Coeff:      0.339D-03 0.603D-02 0.361D-02-0.264D-01-0.514D-01 0.449D-02
 Coeff:      0.246D+00 0.818D+00
 Gap=     0.215 Goal=   None    Shift=    0.000
 RMSDP=1.89D-07 MaxDP=2.09D-05 DE=-4.97D-10 OVMax= 4.94D-06

 Cycle  15  Pass 1  IDiag  1:
 RMSU=  7.75D-08    CP:  7.35D-01  1.15D+00  8.44D-01  7.15D-01  1.03D+00
                    CP:  1.06D+00  1.04D+00  1.24D+00  1.08D+00  1.24D+00
                    CP:  1.06D+00  1.15D+00  1.14D+00  1.05D+00
 E= -1947.63911805551     Delta-E=        0.000000000176 Rises=F Damp=F
 DIIS: error= 1.14D-07 at cycle  15 NSaved=  15.
 NSaved=15 IEnMin=14 EnMin= -1947.63911805569     IErMin=15 ErrMin= 1.14D-07
 ErrMax= 1.14D-07  0.00D+00 EMaxC= 1.00D-01 BMatC= 4.15D-12 BMatP= 2.50D-11
 IDIUse=1 WtCom= 1.00D+00 WtEn= 0.00D+00
 Coeff-Com: -0.974D-06 0.213D-05 0.639D-05 0.450D-05-0.345D-04-0.179D-03
 Coeff-Com: -0.392D-03 0.369D-03 0.202D-02 0.756D-02-0.370D-02-0.681D-01
 Coeff-Com: -0.434D-01 0.286D+00 0.820D+00
 Coeff:     -0.974D-06 0.213D-05 0.639D-05 0.450D-05-0.345D-04-0.179D-03
 Coeff:     -0.392D-03 0.369D-03 0.202D-02 0.756D-02-0.370D-02-0.681D-01
 Coeff:     -0.434D-01 0.286D+00 0.820D+00
 Gap=     0.215 Goal=   None    Shift=    0.000
 RMSDP=7.78D-08 MaxDP=9.29D-06 DE= 1.76D-10 OVMax= 1.56D-06

 Cycle  16  Pass 1  IDiag  1:
 RMSU=  5.06D-08    CP:  7.35D-01  1.15D+00  8.44D-01  7.15D-01  1.03D+00
                    CP:  1.06D+00  1.04D+00  1.24D+00  1.08D+00  1.24D+00
                    CP:  1.06D+00  1.16D+00  1.18D+00  1.21D+00  1.25D+00
 E= -1947.63911805581     Delta-E=       -0.000000000296 Rises=F Damp=F
 DIIS: error= 2.24D-08 at cycle  16 NSaved=  16.
 NSaved=16 IEnMin=16 EnMin= -1947.63911805581     IErMin=16 ErrMin= 2.24D-08
 ErrMax= 2.24D-08  0.00D+00 EMaxC= 1.00D-01 BMatC= 6.07D-13 BMatP= 4.15D-12
 IDIUse=1 WtCom= 1.00D+00 WtEn= 0.00D+00
 Coeff-Com: -0.306D-06 0.678D-06 0.309D-05 0.498D-05 0.185D-04-0.235D-04
 Coeff-Com: -0.193D-03-0.475D-03 0.421D-03 0.559D-02 0.370D-02-0.259D-01
 Coeff-Com: -0.422D-01 0.530D-02 0.306D+00 0.747D+00
 Coeff:     -0.306D-06 0.678D-06 0.309D-05 0.498D-05 0.185D-04-0.235D-04
 Coeff:     -0.193D-03-0.475D-03 0.421D-03 0.559D-02 0.370D-02-0.259D-01
 Coeff:     -0.422D-01 0.530D-02 0.306D+00 0.747D+00
 Gap=     0.215 Goal=   None    Shift=    0.000
 RMSDP=6.74D-08 MaxDP=4.57D-06 DE=-2.96D-10 OVMax= 4.08D-07

 Cycle  17  Pass 1  IDiag  1:
 RMSU=  5.03D-08    CP:  7.35D-01  1.15D+00  8.44D-01  7.15D-01  1.03D+00
                    CP:  1.06D+00  1.04D+00  1.24D+00  1.08D+00  1.25D+00
                    CP:  1.06D+00  1.15D+00  1.19D+00  1.26D+00  1.36D+00
                    CP:  1.61D+00
 E= -1947.63911805570     Delta-E=        0.000000000105 Rises=F Damp=F
 DIIS: error= 1.05D-08 at cycle  17 NSaved=  17.
 NSaved=17 IEnMin=16 EnMin= -1947.63911805581     IErMin=17 ErrMin= 1.05D-08
 ErrMax= 1.05D-08  0.00D+00 EMaxC= 1.00D-01 BMatC= 9.13D-14 BMatP= 6.07D-13
 IDIUse=1 WtCom= 1.00D+00 WtEn= 0.00D+00
 Coeff-Com:  0.510D-07-0.111D-06 0.385D-08 0.107D-05 0.112D-04 0.219D-04
 Coeff-Com: -0.110D-05-0.234D-03-0.192D-03 0.738D-03 0.181D-02 0.192D-02
 Coeff-Com: -0.743D-02-0.460D-01-0.250D-01 0.250D+00 0.824D+00
 Coeff:      0.510D-07-0.111D-06 0.385D-08 0.107D-05 0.112D-04 0.219D-04
 Coeff:     -0.110D-05-0.234D-03-0.192D-03 0.738D-03 0.181D-02 0.192D-02
 Coeff:     -0.743D-02-0.460D-01-0.250D-01 0.250D+00 0.824D+00
 Gap=     0.215 Goal=   None    Shift=    0.000
 RMSDP=1.07D-07 MaxDP=9.05D-06 DE= 1.05D-10 OVMax= 1.87D-07

 Cycle  18  Pass 1  IDiag  1:
 RMSU=  6.69D-08    CP:  7.35D-01  1.15D+00  8.44D-01  7.15D-01  1.03D+00
                    CP:  1.06D+00  1.04D+00  1.24D+00  1.08D+00  1.25D+00
                    CP:  1.06D+00  1.17D+00  1.20D+00  1.22D+00  1.60D+00
                    CP:  2.50D+00  1.99D+00
 E= -1947.63911805562     Delta-E=        0.000000000081 Rises=F Damp=F
 DIIS: error= 9.99D-09 at cycle  18 NSaved=  18.
 NSaved=18 IEnMin=16 EnMin= -1947.63911805581     IErMin=18 ErrMin= 9.99D-09
 ErrMax= 9.99D-09  0.00D+00 EMaxC= 1.00D-01 BMatC= 3.09D-14 BMatP= 9.13D-14
 IDIUse=1 WtCom= 1.00D+00 WtEn= 0.00D+00
 Coeff-Com:  0.236D-07-0.513D-07-0.678D-07 0.385D-06 0.395D-05 0.107D-04
 Coeff-Com:  0.784D-05-0.746D-04-0.905D-04 0.581D-04 0.608D-03 0.225D-02
 Coeff-Com: -0.136D-02-0.227D-01-0.259D-01 0.815D-01 0.397D+00 0.569D+00
 Coeff:      0.236D-07-0.513D-07-0.678D-07 0.385D-06 0.395D-05 0.107D-04
 Coeff:      0.784D-05-0.746D-04-0.905D-04 0.581D-04 0.608D-03 0.225D-02
 Coeff:     -0.136D-02-0.227D-01-0.259D-01 0.815D-01 0.397D+00 0.569D+00
 Gap=     0.215 Goal=   None    Shift=    0.000
 RMSDP=1.10D-07 MaxDP=1.05D-05 DE= 8.09D-11 OVMax= 3.31D-08

 Cycle  19  Pass 1  IDiag  1:
 RMSU=  4.45D-08    CP:  7.35D-01  1.15D+00  8.44D-01  7.15D-01  1.03D+00
                    CP:  1.06D+00  1.04D+00  1.24D+00  1.08D+00  1.25D+00
                    CP:  1.06D+00  1.18D+00  1.20D+00  1.10D+00  1.82D+00
                    CP:  3.00D+00  3.00D+00  1.92D+00
 E= -1947.63911805544     Delta-E=        0.000000000182 Rises=F Damp=F
 DIIS: error= 1.54D-08 at cycle  19 NSaved=  19.
 NSaved=19 IEnMin=16 EnMin= -1947.63911805581     IErMin=18 ErrMin= 9.99D-09
 ErrMax= 1.54D-08  0.00D+00 EMaxC= 1.00D-01 BMatC= 5.08D-14 BMatP= 3.09D-14
 IDIUse=1 WtCom= 1.00D+00 WtEn= 0.00D+00
 Coeff-Com:  0.292D-07-0.635D-07-0.145D-06 0.330D-06 0.360D-05 0.125D-04
 Coeff-Com:  0.158D-04-0.602D-04-0.109D-03-0.156D-03 0.528D-03 0.357D-02
 Coeff-Com:  0.262D-04-0.266D-01-0.416D-01 0.685D-01 0.470D+00 0.977D+00
 Coeff-Com: -0.452D+00
 Coeff:      0.292D-07-0.635D-07-0.145D-06 0.330D-06 0.360D-05 0.125D-04
 Coeff:      0.158D-04-0.602D-04-0.109D-03-0.156D-03 0.528D-03 0.357D-02
 Coeff:      0.262D-04-0.266D-01-0.416D-01 0.685D-01 0.470D+00 0.977D+00
 Coeff:     -0.452D+00
 Gap=     0.215 Goal=   None    Shift=    0.000
 RMSDP=9.99D-08 MaxDP=1.15D-05 DE= 1.82D-10 OVMax= 8.00D-09

 Cycle  20  Pass 1  IDiag  1:
 RMSU=  4.22D-08    CP:  7.35D-01  1.15D+00  8.44D-01  7.15D-01  1.03D+00
                    CP:  1.06D+00  1.04D+00  1.24D+00  1.08D+00  1.25D+00
                    CP:  1.07D+00  1.17D+00  1.20D+00  1.23D+00  1.68D+00
                    CP:  2.65D+00  2.36D+00  1.09D+00  2.42D-01
 E= -1947.63911805564     Delta-E=       -0.000000000198 Rises=F Damp=F
 DIIS: error= 1.44D-08 at cycle  20 NSaved=  20.
 NSaved=20 IEnMin=16 EnMin= -1947.63911805581     IErMin=18 ErrMin= 9.99D-09
 ErrMax= 1.44D-08  0.00D+00 EMaxC= 1.00D-01 BMatC= 4.10D-14 BMatP= 3.09D-14
 IDIUse=1 WtCom= 1.00D+00 WtEn= 0.00D+00
 Large coefficients: NSaved= 20 BigCof=    0.00 CofMax=   10.00 Det=-7.72D-15
 Inversion failed.  Reducing to 19 matrices.
 Large coefficients: NSaved= 19 BigCof=    0.00 CofMax=   10.00 Det=-6.08D-15
 Inversion failed.  Reducing to 18 matrices.
 Large coefficients: NSaved= 18 BigCof=    0.00 CofMax=   10.00 Det=-6.08D-15
 Inversion failed.  Reducing to 17 matrices.
 Large coefficients: NSaved= 17 BigCof=    0.00 CofMax=   10.00 Det=-6.13D-15
 Inversion failed.  Reducing to 16 matrices.
 Large coefficients: NSaved= 16 BigCof=    0.00 CofMax=   10.00 Det=-6.13D-15
 Inversion failed.  Reducing to 15 matrices.
 Coeff-Com:  0.384D-05 0.652D-05-0.231D-06 0.281D-05-0.103D-04 0.883D-04
 Coeff-Com:  0.637D-03-0.759D-03-0.999D-02-0.128D-01 0.288D-01 0.264D+00
 Coeff-Com:  0.991D+00-0.851D+00 0.589D+00
 Coeff:      0.384D-05 0.652D-05-0.231D-06 0.281D-05-0.103D-04 0.883D-04
 Coeff:      0.637D-03-0.759D-03-0.999D-02-0.128D-01 0.288D-01 0.264D+00
 Coeff:      0.991D+00-0.851D+00 0.589D+00
 Gap=     0.215 Goal=   None    Shift=    0.000
 RMSDP=6.91D-08 MaxDP=7.52D-06 DE=-1.98D-10 OVMax= 6.51D-09

 Cycle  21  Pass 1  IDiag  1:
 Restarting incremental Fock formation.
 E= -1947.63911805592     Delta-E=       -0.000000000288 Rises=F Damp=F
 DIIS: error= 4.93D-08 at cycle  21 NSaved=  16.
 NSaved=16 IEnMin=16 EnMin= -1947.63911805592     IErMin=13 ErrMin= 9.99D-09
 ErrMax= 4.93D-08  0.00D+00 EMaxC= 1.00D-01 BMatC= 6.83D-13 BMatP= 3.09D-14
 IDIUse=1 WtCom= 1.00D+00 WtEn= 0.00D+00
 Large coefficients: NSaved= 16 BigCof=    0.00 CofMax=   10.00 Det=-8.09D-15
 Inversion failed.  Reducing to 15 matrices.
 Coeff-Com: -0.150D-05 0.561D-05 0.314D-04 0.597D-04 0.483D-04 0.912D-04
 Coeff-Com: -0.101D-02-0.728D-02-0.797D-02 0.194D-01 0.212D+00 0.913D+00
 Coeff-Com: -0.803D+00 0.615D+00 0.602D-01
 Coeff:     -0.150D-05 0.561D-05 0.314D-04 0.597D-04 0.483D-04 0.912D-04
 Coeff:     -0.101D-02-0.728D-02-0.797D-02 0.194D-01 0.212D+00 0.913D+00
 Coeff:     -0.803D+00 0.615D+00 0.602D-01
 Gap=     0.215 Goal=   None    Shift=    0.000
 RMSDP=1.19D-07 MaxDP=1.12D-05 DE=-2.88D-10 OVMax= 1.53D-08

 Cycle  22  Pass 1  IDiag  1:
 RMSU=  1.19D-07    CP:  1.00D+00
 E= -1947.63911805576     Delta-E=        0.000000000165 Rises=F Damp=F
 DIIS: error= 4.77D-08 at cycle  22 NSaved=  16.
 NSaved=16 IEnMin=15 EnMin= -1947.63911805592     IErMin=12 ErrMin= 9.99D-09
 ErrMax= 4.77D-08  0.00D+00 EMaxC= 1.00D-01 BMatC= 6.12D-13 BMatP= 3.09D-14
 IDIUse=1 WtCom= 1.00D+00 WtEn= 0.00D+00
 Large coefficients: NSaved= 16 BigCof=    0.00 CofMax=   10.00 Det=-3.12D-15
 Inversion failed.  Reducing to 15 matrices.
 Coeff-Com:  0.103D-04 0.322D-04 0.341D-04-0.453D-06 0.645D-04-0.815D-03
 Coeff-Com: -0.632D-02-0.703D-02 0.171D-01 0.199D+00 0.869D+00-0.748D+00
 Coeff-Com:  0.587D+00-0.493D+00 0.583D+00
 Coeff:      0.103D-04 0.322D-04 0.341D-04-0.453D-06 0.645D-04-0.815D-03
 Coeff:     -0.632D-02-0.703D-02 0.171D-01 0.199D+00 0.869D+00-0.748D+00
 Coeff:      0.587D+00-0.493D+00 0.583D+00
 Gap=     0.215 Goal=   None    Shift=    0.000
 RMSDP=7.06D-08 MaxDP=6.20D-06 DE= 1.65D-10 OVMax= 9.79D-09

 Cycle  23  Pass 1  IDiag  1:
 RMSU=  4.02D-08    CP:  1.00D+00  1.49D+00
 E= -1947.63911805570     Delta-E=        0.000000000055 Rises=F Damp=F
 DIIS: error= 4.66D-08 at cycle  23 NSaved=  16.
 NSaved=16 IEnMin=14 EnMin= -1947.63911805592     IErMin=11 ErrMin= 9.99D-09
 ErrMax= 4.66D-08  0.00D+00 EMaxC= 1.00D-01 BMatC= 5.90D-13 BMatP= 3.09D-14
 IDIUse=1 WtCom= 1.00D+00 WtEn= 0.00D+00
 Large coefficients: NSaved= 16 BigCof=    0.00 CofMax=   10.00 Det=-1.51D-15
 Inversion failed.  Reducing to 15 matrices.
 Coeff-Com:  0.254D-04 0.723D-04 0.561D-04 0.234D-04-0.975D-03-0.639D-02
 Coeff-Com: -0.645D-02 0.177D-01 0.194D+00 0.838D+00-0.725D+00 0.590D+00
 Coeff-Com: -0.535D+00 0.195D+00 0.440D+00
 Coeff:      0.254D-04 0.723D-04 0.561D-04 0.234D-04-0.975D-03-0.639D-02
 Coeff:     -0.645D-02 0.177D-01 0.194D+00 0.838D+00-0.725D+00 0.590D+00
 Coeff:     -0.535D+00 0.195D+00 0.440D+00
 Gap=     0.215 Goal=   None    Shift=    0.000
 RMSDP=7.39D-08 MaxDP=6.88D-06 DE= 5.55D-11 OVMax= 5.18D-09

 Cycle  24  Pass 1  IDiag  1:
 RMSU=  6.57D-08    CP:  1.00D+00  1.70D+00  1.42D+00
 E= -1947.63911805590     Delta-E=       -0.000000000198 Rises=F Damp=F
 DIIS: error= 4.72D-08 at cycle  24 NSaved=  16.
 NSaved=16 IEnMin=13 EnMin= -1947.63911805592     IErMin=10 ErrMin= 9.99D-09
 ErrMax= 4.72D-08  0.00D+00 EMaxC= 1.00D-01 BMatC= 5.80D-13 BMatP= 3.09D-14
 IDIUse=1 WtCom= 1.00D+00 WtEn= 0.00D+00
 Large coefficients: NSaved= 16 BigCof=    0.00 CofMax=   10.00 Det=-1.07D-15
 Inversion failed.  Reducing to 15 matrices.
 Coeff-Com:  0.539D-04 0.833D-04 0.123D-03-0.842D-03-0.601D-02-0.644D-02
 Coeff-Com:  0.156D-01 0.188D+00 0.835D+00-0.725D+00 0.598D+00-0.544D+00
 Coeff-Com:  0.191D+00 0.519D+00-0.649D-01
 Coeff:      0.539D-04 0.833D-04 0.123D-03-0.842D-03-0.601D-02-0.644D-02
 Coeff:      0.156D-01 0.188D+00 0.835D+00-0.725D+00 0.598D+00-0.544D+00
 Coeff:      0.191D+00 0.519D+00-0.649D-01
 Gap=     0.215 Goal=   None    Shift=    0.000
 RMSDP=3.95D-09 MaxDP=2.71D-07 DE=-1.98D-10 OVMax= 8.72D-09

 SCF Done:  E(RwB97XD) =  -1947.63911806     A.U. after   24 cycles
            NFock= 24  Conv=0.40D-08     -V/T= 1.9988
 KE= 1.950042638992D+03 PE=-1.212660856750D+04 EE= 4.452094333989D+03
 Leave Link  502 at Tue Jan 19 14:49:03 2021, MaxMem=  5368709120 cpu:     11858.2
 (Enter /usr/local/bin/G09/G09d//g09/l801.exe)
 DoSCS=F DFT=T ScalE2(SS,OS)=  1.000000  1.000000
 Range of M.O.s used for correlation:     1   827
 NBasis=   837 NAE=   128 NBE=   128 NFC=     0 NFV=     0
 NROrb=    827 NOA=   128 NOB=   128 NVA=   699 NVB=   699

 **** Warning!!: The largest alpha MO coefficient is  0.13897291D+03

 Leave Link  801 at Tue Jan 19 14:49:05 2021, MaxMem=  5368709120 cpu:         0.5
 (Enter /usr/local/bin/G09/G09d//g09/l1002.exe)
 Minotr:  Closed shell wavefunction.
          Direct CPHF calculation.
          Differentiating once with respect to electric field.
                with respect to dipole field.
          Electric field/nuclear overlap derivatives assumed to be zero.
          Requested convergence is 1.0D-08 RMS, and 1.0D-07 maximum.
          NewPWx=F KeepS1=T KeepF1=T KeepIn=T MapXYZ=F SortEE=F KeepMc=T.
          MDV=    5368707801 using IRadAn=       1.
 Generate precomputed XC quadrature information.
          Solving linear equations separately, MaxMat=      72.
          Doing perturbations at frequencies    0.000000    0.072000    0.144000
          There are     9 degrees of freedom in the 1st order CPHF.  IDoFFX=0 NUNeed=     9.
 LinEq1:  Iter=  0 NonCon=     9 RMS=7.26D-02 Max=2.02D+01 NDo=     9
 AX will form     9 AO Fock derivatives at one time.
 FoFJK:  IHMeth= 1 ICntrl=       0 DoSepK=T KAlg= 0 I1Cent=   0 FoldK=F
 IRaf=         1 NMat=  18 IRICut=       1 DoRegI=T DoRafI=F ISym2E= 0.
 FoFCou: FMM=T IPFlag=           0 FMFlag=      100000 FMFlg1=        2001
         NFxFlg=           0 DoJE=F BraDBF=F KetDBF=F FulRan=T
         wScrn=  0.000000 ICntrl=     500 IOpCl=  0 I1Cent=           0 NGrid=           0
         NMat0=    9 NMatS0=      9 NMatT0=    0 NMatD0=    9 NMtDS0=    0 NMtDT0=    0
 Symmetry not used in FoFCou.
 FMM levels:  10  Number of levels for PrismC:   9
 LinEq1:  Iter=  1 NonCon=     9 RMS=4.77D-02 Max=1.18D+01 NDo=     9
 LinEq1:  Iter=  2 NonCon=     9 RMS=3.79D-02 Max=5.73D+00 NDo=     9
 LinEq1:  Iter=  3 NonCon=     9 RMS=2.19D-02 Max=2.15D+00 NDo=     9
 LinEq1:  Iter=  4 NonCon=     9 RMS=1.58D-02 Max=2.36D+00 NDo=     9
 LinEq1:  Iter=  5 NonCon=     9 RMS=1.00D-02 Max=1.49D+00 NDo=     9
 LinEq1:  Iter=  6 NonCon=     9 RMS=6.34D-03 Max=9.71D-01 NDo=     9
 LinEq1:  Iter=  7 NonCon=     9 RMS=4.79D-03 Max=1.02D+00 NDo=     9
 LinEq1:  Iter=  8 NonCon=     9 RMS=3.97D-03 Max=8.53D-01 NDo=     9
 LinEq1:  Iter=  9 NonCon=     9 RMS=3.03D-03 Max=5.79D-01 NDo=     9
 LinEq1:  Iter= 10 NonCon=     9 RMS=2.03D-03 Max=3.84D-01 NDo=     9
 LinEq1:  Iter= 11 NonCon=     9 RMS=1.39D-03 Max=2.09D-01 NDo=     9
 LinEq1:  Iter= 12 NonCon=     9 RMS=7.43D-04 Max=6.93D-02 NDo=     9
 LinEq1:  Iter= 13 NonCon=     9 RMS=5.22D-04 Max=7.37D-02 NDo=     9
 LinEq1:  Iter= 14 NonCon=     9 RMS=3.02D-04 Max=5.07D-02 NDo=     9
 LinEq1:  Iter= 15 NonCon=     9 RMS=2.28D-04 Max=3.61D-02 NDo=     9
 LinEq1:  Iter= 16 NonCon=     9 RMS=1.54D-04 Max=2.01D-02 NDo=     9
 LinEq1:  Iter= 17 NonCon=     9 RMS=1.04D-04 Max=1.22D-02 NDo=     9
 LinEq1:  Iter= 18 NonCon=     9 RMS=6.60D-05 Max=6.89D-03 NDo=     9
 LinEq1:  Iter= 19 NonCon=     9 RMS=3.35D-05 Max=4.57D-03 NDo=     9
 LinEq1:  Iter= 20 NonCon=     9 RMS=2.21D-05 Max=2.27D-03 NDo=     9
 LinEq1:  Iter= 21 NonCon=     9 RMS=1.25D-05 Max=2.26D-03 NDo=     9
 LinEq1:  Iter= 22 NonCon=     9 RMS=8.65D-06 Max=1.03D-03 NDo=     9
 LinEq1:  Iter= 23 NonCon=     9 RMS=5.44D-06 Max=6.81D-04 NDo=     9
 LinEq1:  Iter= 24 NonCon=     8 RMS=3.25D-06 Max=4.63D-04 NDo=     9
 LinEq1:  Iter= 25 NonCon=     6 RMS=2.14D-06 Max=3.02D-04 NDo=     8
 LinEq1:  Iter= 26 NonCon=     6 RMS=1.29D-06 Max=1.51D-04 NDo=     6
 LinEq1:  Iter= 27 NonCon=     6 RMS=7.59D-07 Max=6.64D-05 NDo=     6
 LinEq1:  Iter= 28 NonCon=     5 RMS=4.68D-07 Max=4.78D-05 NDo=     6
 LinEq1:  Iter= 29 NonCon=     3 RMS=2.68D-07 Max=2.18D-05 NDo=     5
 LinEq1:  Iter= 30 NonCon=     3 RMS=1.47D-07 Max=1.43D-05 NDo=     3
 LinEq1:  Iter= 31 NonCon=     3 RMS=7.92D-08 Max=6.31D-06 NDo=     3
 LinEq1:  Iter= 32 NonCon=     3 RMS=5.14D-08 Max=4.18D-06 NDo=     3
 LinEq1:  Iter= 33 NonCon=     3 RMS=2.49D-08 Max=2.85D-06 NDo=     3
 LinEq1:  Iter= 34 NonCon=     3 RMS=1.36D-08 Max=1.69D-06 NDo=     3
 LinEq1:  Iter= 35 NonCon=     3 RMS=8.14D-09 Max=8.78D-07 NDo=     3
 LinEq1:  Iter= 36 NonCon=     3 RMS=5.02D-09 Max=4.33D-07 NDo=     3
 LinEq1:  Iter= 37 NonCon=     3 RMS=2.87D-09 Max=1.86D-07 NDo=     3
 LinEq1:  Iter= 38 NonCon=     1 RMS=1.99D-09 Max=1.05D-07 NDo=     3
 LinEq1:  Iter= 39 NonCon=     0 RMS=7.06D-10 Max=6.78D-08 NDo=     1
 Linear equations converged to 1.000D-08 1.000D-07 after    39 iterations.
 FullF1:  Do perturbations    1 to     9.
 SCF Polarizability for W=    0.000000:
                1             2             3 
      1  0.389001D+03
      2  0.112769D+03  0.337719D+03
      3 -0.896180D+02 -0.127953D+03  0.370892D+03
 Isotropic polarizability for W=    0.000000      365.87 Bohr**3.
 SCF Polarizability for W=    0.072000:
                1             2             3 
      1  0.438509D+03
      2  0.151604D+03  0.381961D+03
      3 -0.131032D+03 -0.170230D+03  0.424845D+03
 Isotropic polarizability for W=    0.072000      415.10 Bohr**3.
 SCF Polarizability for W=    0.144000:
                1             2             3 
      1  0.351172D+03
      2  0.297751D+02  0.340505D+03
      3  0.246182D+02 -0.991580D+02  0.403583D+03
 Isotropic polarizability for W=    0.144000      365.09 Bohr**3.
 SCF Static Hyperpolarizability:
 K=  1 block:
                1 
      1 -0.211263D+04
 K=  2 block:
                1             2 
      1 -0.200852D+04
      2 -0.182967D+04 -0.169182D+04
 K=  3 block:
                1             2             3 
      1  0.224386D+04
      2  0.207124D+04  0.184588D+04
      3 -0.239686D+04 -0.201858D+04  0.216400D+04
 SCF Beta(-W,W;0) for W=    0.072000:
 K=  1 block:
                1             2             3 
      1 -0.517497D+04
      2 -0.478848D+04 -0.445663D+04
      3  0.532579D+04  0.507327D+04 -0.591006D+04
 K=  2 block:
                1             2             3 
      1 -0.491792D+04
      2 -0.446215D+04 -0.413020D+04
      3  0.498687D+04  0.456994D+04 -0.508986D+04
 K=  3 block:
                1             2             3 
      1  0.550797D+04
      2  0.502329D+04  0.451659D+04
      3 -0.575157D+04 -0.503284D+04  0.553352D+04
 SCF Beta(W,W;-2W) for W=    0.072000:
 K=  1 block:
                1             2             3 
      1  0.790012D+04
      2  0.876729D+04  0.902018D+04
      3 -0.106196D+05 -0.104392D+05  0.120815D+05
 K=  2 block:
                1             2             3 
      1  0.602320D+04
      2  0.777512D+04  0.691946D+04
      3 -0.951942D+04 -0.754871D+04  0.785701D+04
 K=  3 block:
                1             2             3 
      1 -0.643319D+04
      2 -0.860577D+04 -0.704546D+04
      3  0.104186D+05  0.725403D+04 -0.680894D+04
 SCF Beta(-W,W;0) for W=    0.144000:
 K=  1 block:
                1             2             3 
      1 -0.484937D+05
      2 -0.961860D+04 -0.137923D+06
      3 -0.640431D+04  0.206067D+06 -0.317931D+06
 K=  2 block:
                1             2             3 
      1 -0.447312D+05
      2 -0.202533D+05 -0.795876D+05
      3  0.122707D+05  0.116647D+06 -0.179277D+06
 K=  3 block:
                1             2             3 
      1  0.488202D+05
      2  0.289621D+05  0.432518D+05
      3 -0.238964D+05 -0.605853D+05  0.935204D+05
 End of Minotr F.D. properties on file   721 Mask=      31 NFrqRd=     2 NDeriv=     1 ND12= 1 LenFil=      94:
 Frequencies=    0.000000    0.072000
 Property number 1 -- Alpha(-w,w) frequency  1    0.000000:
                 1             2             3 
      1   0.389001D+03  0.112769D+03 -0.896180D+02
      2   0.112769D+03  0.337719D+03 -0.127953D+03
      3  -0.896180D+02 -0.127953D+03  0.370892D+03
 Property number 1 -- Alpha(-w,w) frequency  2    0.072000:
                 1             2             3 
      1   0.438509D+03  0.151604D+03 -0.131032D+03
      2   0.151604D+03  0.381961D+03 -0.170230D+03
      3  -0.131032D+03 -0.170230D+03  0.424845D+03
 Property number 5 -- Beta(-w,w,0) frequency  1    0.000000:
                 1 
      1  -0.211263D+04
      2  -0.200852D+04
      3  -0.182967D+04
      4   0.224386D+04
      5   0.207124D+04
      6  -0.239686D+04
      7  -0.200852D+04
      8  -0.182967D+04
      9  -0.169182D+04
     10   0.207124D+04
     11   0.184588D+04
     12  -0.201858D+04
     13   0.224386D+04
     14   0.207124D+04
     15   0.184588D+04
     16  -0.239686D+04
     17  -0.201858D+04
     18   0.216400D+04
 Property number 5 -- Beta(-w,w,0) frequency  2    0.072000:
                 1 
      1  -0.517497D+04
      2  -0.478848D+04
      3  -0.445663D+04
      4   0.532579D+04
      5   0.507327D+04
      6  -0.591006D+04
      7  -0.491792D+04
      8  -0.446215D+04
      9  -0.413020D+04
     10   0.498687D+04
     11   0.456994D+04
     12  -0.508986D+04
     13   0.550797D+04
     14   0.502329D+04
     15   0.451659D+04
     16  -0.575157D+04
     17  -0.503284D+04
     18   0.553352D+04
 Property number 6 -- Beta(w,w,-2w) frequency  1    0.000000:
                 1 
      1  -0.211263D+04
      2  -0.200852D+04
      3  -0.182967D+04
      4   0.224386D+04
      5   0.207124D+04
      6  -0.239686D+04
      7  -0.200852D+04
      8  -0.182967D+04
      9  -0.169182D+04
     10   0.207124D+04
     11   0.184588D+04
     12  -0.201858D+04
     13   0.224386D+04
     14   0.207124D+04
     15   0.184588D+04
     16  -0.239686D+04
     17  -0.201858D+04
     18   0.216400D+04
 Property number 6 -- Beta(w,w,-2w) frequency  2    0.072000:
                 1 
      1   0.790012D+04
      2   0.876729D+04
      3   0.902018D+04
      4  -0.106196D+05
      5  -0.104392D+05
      6   0.120815D+05
      7   0.602320D+04
      8   0.777512D+04
      9   0.691946D+04
     10  -0.951942D+04
     11  -0.754871D+04
     12   0.785701D+04
     13  -0.643319D+04
     14  -0.860577D+04
     15  -0.704546D+04
     16   0.104186D+05
     17   0.725403D+04
     18  -0.680894D+04
 End of Minotr F.D. properties file   722 does not exist.
 End of Minotr F.D. properties file   788 does not exist.
 Leave Link 1002 at Tue Jan 19 18:10:03 2021, MaxMem=  5368709120 cpu:     96239.7
 (Enter /usr/local/bin/G09/G09d//g09/l601.exe)
 Copying SCF densities to generalized density rwf, IOpCl= 0 IROHF=0.

 **********************************************************************

            Population analysis using the SCF density.

 **********************************************************************

 Alpha  occ. eigenvalues --  -89.14473 -19.28724 -19.27582 -19.26937 -19.25044
 Alpha  occ. eigenvalues --  -19.14632 -19.14576 -19.13706 -14.57273 -10.40834
 Alpha  occ. eigenvalues --  -10.38214 -10.34649 -10.34605 -10.34356 -10.33247
 Alpha  occ. eigenvalues --  -10.33208 -10.31273 -10.30145 -10.29644 -10.29366
 Alpha  occ. eigenvalues --  -10.27713 -10.27646 -10.27640 -10.27602 -10.26992
 Alpha  occ. eigenvalues --  -10.26476 -10.26371 -10.25571 -10.25570 -10.25374
 Alpha  occ. eigenvalues --  -10.25291 -10.24950 -10.24917 -10.24722  -8.15985
 Alpha  occ. eigenvalues --   -6.10775  -6.10741  -6.10708  -1.26811  -1.22502
 Alpha  occ. eigenvalues --   -1.18233  -1.17274  -1.16785  -1.15996  -1.02362
 Alpha  occ. eigenvalues --   -1.01709  -1.00305  -0.98633  -0.97139  -0.96801
 Alpha  occ. eigenvalues --   -0.92131  -0.91939  -0.89113  -0.87443  -0.86909
 Alpha  occ. eigenvalues --   -0.86431  -0.83976  -0.83534  -0.82388  -0.82064
 Alpha  occ. eigenvalues --   -0.79288  -0.77584  -0.75397  -0.74569  -0.73372
 Alpha  occ. eigenvalues --   -0.73047  -0.71428  -0.70864  -0.70555  -0.69643
 Alpha  occ. eigenvalues --   -0.67660  -0.65743  -0.65004  -0.64872  -0.62942
 Alpha  occ. eigenvalues --   -0.62544  -0.62089  -0.61870  -0.61330  -0.60120
 Alpha  occ. eigenvalues --   -0.58763  -0.57169  -0.56771  -0.56371  -0.55872
 Alpha  occ. eigenvalues --   -0.55460  -0.55018  -0.54701  -0.54553  -0.53511
 Alpha  occ. eigenvalues --   -0.53409  -0.52759  -0.52531  -0.52119  -0.51627
 Alpha  occ. eigenvalues --   -0.50802  -0.50614  -0.50541  -0.49351  -0.48672
 Alpha  occ. eigenvalues --   -0.48380  -0.48003  -0.47833  -0.47080  -0.46370
 Alpha  occ. eigenvalues --   -0.46088  -0.45977  -0.45360  -0.43926  -0.43479
 Alpha  occ. eigenvalues --   -0.42997  -0.42305  -0.41892  -0.41301  -0.40890
 Alpha  occ. eigenvalues --   -0.40454  -0.36571  -0.36252  -0.35837  -0.35416
 Alpha  occ. eigenvalues --   -0.32919  -0.31985  -0.31907  -0.31726  -0.29207
 Alpha  occ. eigenvalues --   -0.27583  -0.27050  -0.26772
 Alpha virt. eigenvalues --   -0.05316  -0.02391   0.02614   0.03550   0.03577
 Alpha virt. eigenvalues --    0.04988   0.05516   0.05894   0.06377   0.06698
 Alpha virt. eigenvalues --    0.06905   0.07885   0.08089   0.08244   0.08592
 Alpha virt. eigenvalues --    0.08917   0.09289   0.09626   0.10086   0.10759
 Alpha virt. eigenvalues --    0.11037   0.11089   0.11519   0.12184   0.12299
 Alpha virt. eigenvalues --    0.12410   0.12893   0.13137   0.13197   0.13699
 Alpha virt. eigenvalues --    0.13936   0.14104   0.14745   0.14837   0.15280
 Alpha virt. eigenvalues --    0.15396   0.15588   0.16185   0.16272   0.16764
 Alpha virt. eigenvalues --    0.17014   0.17137   0.17407   0.17502   0.17853
 Alpha virt. eigenvalues --    0.18015   0.18433   0.18706   0.18855   0.19257
 Alpha virt. eigenvalues --    0.19775   0.20068   0.20358   0.20401   0.20604
 Alpha virt. eigenvalues --    0.20780   0.21030   0.21437   0.21543   0.21876
 Alpha virt. eigenvalues --    0.22112   0.22289   0.22457   0.22954   0.23165
 Alpha virt. eigenvalues --    0.23317   0.23543   0.23742   0.23903   0.24002
 Alpha virt. eigenvalues --    0.24280   0.24563   0.24825   0.24904   0.25233
 Alpha virt. eigenvalues --    0.25426   0.25655   0.25942   0.26156   0.26295
 Alpha virt. eigenvalues --    0.26390   0.26484   0.26579   0.26832   0.26923
 Alpha virt. eigenvalues --    0.27213   0.27444   0.27580   0.27816   0.28117
 Alpha virt. eigenvalues --    0.28129   0.28326   0.28524   0.28887   0.29029
 Alpha virt. eigenvalues --    0.29450   0.29455   0.29706   0.29834   0.30059
 Alpha virt. eigenvalues --    0.30273   0.30361   0.30566   0.30697   0.31035
 Alpha virt. eigenvalues --    0.31182   0.31674   0.31787   0.32016   0.32226
 Alpha virt. eigenvalues --    0.32406   0.32583   0.32832   0.33148   0.33272
 Alpha virt. eigenvalues --    0.33475   0.33834   0.33951   0.34140   0.34281
 Alpha virt. eigenvalues --    0.34712   0.34935   0.35051   0.35322   0.35513
 Alpha virt. eigenvalues --    0.35778   0.36385   0.36510   0.36584   0.36798
 Alpha virt. eigenvalues --    0.37097   0.37215   0.37423   0.37510   0.38214
 Alpha virt. eigenvalues --    0.38540   0.38880   0.39035   0.39256   0.39364
 Alpha virt. eigenvalues --    0.39700   0.39964   0.40207   0.40308   0.40696
 Alpha virt. eigenvalues --    0.40784   0.41126   0.41668   0.41797   0.41947
 Alpha virt. eigenvalues --    0.42376   0.42684   0.42968   0.43309   0.43522
 Alpha virt. eigenvalues --    0.43783   0.44145   0.44434   0.44855   0.45038
 Alpha virt. eigenvalues --    0.45253   0.45532   0.45749   0.46093   0.46669
 Alpha virt. eigenvalues --    0.46785   0.47197   0.47503   0.47904   0.48588
 Alpha virt. eigenvalues --    0.48953   0.49234   0.49306   0.49619   0.49936
 Alpha virt. eigenvalues --    0.50515   0.50867   0.51056   0.51715   0.52306
 Alpha virt. eigenvalues --    0.52945   0.53147   0.53660   0.53999   0.54492
 Alpha virt. eigenvalues --    0.54897   0.55650   0.55831   0.56152   0.56774
 Alpha virt. eigenvalues --    0.57788   0.58379   0.59090   0.59581   0.59864
 Alpha virt. eigenvalues --    0.60192   0.60389   0.60830   0.61113   0.61719
 Alpha virt. eigenvalues --    0.62153   0.62432   0.62475   0.62638   0.63034
 Alpha virt. eigenvalues --    0.63329   0.64116   0.64421   0.64906   0.65094
 Alpha virt. eigenvalues --    0.65435   0.66250   0.66436   0.66641   0.66728
 Alpha virt. eigenvalues --    0.67547   0.67911   0.68162   0.68856   0.69354
 Alpha virt. eigenvalues --    0.69524   0.70230   0.70481   0.70990   0.71099
 Alpha virt. eigenvalues --    0.71710   0.71911   0.72069   0.72471   0.73024
 Alpha virt. eigenvalues --    0.73359   0.73822   0.74330   0.74639   0.74918
 Alpha virt. eigenvalues --    0.75344   0.75818   0.76190   0.76366   0.76984
 Alpha virt. eigenvalues --    0.77338   0.77613   0.78062   0.78335   0.78750
 Alpha virt. eigenvalues --    0.79000   0.79633   0.79851   0.80149   0.80886
 Alpha virt. eigenvalues --    0.81246   0.81597   0.81881   0.82480   0.82988
 Alpha virt. eigenvalues --    0.83292   0.83698   0.83972   0.84347   0.84642
 Alpha virt. eigenvalues --    0.84758   0.85224   0.85406   0.85666   0.86196
 Alpha virt. eigenvalues --    0.86740   0.87005   0.87096   0.87679   0.88945
 Alpha virt. eigenvalues --    0.89249   0.89559   0.89978   0.90183   0.90563
 Alpha virt. eigenvalues --    0.90810   0.91565   0.92068   0.92441   0.92929
 Alpha virt. eigenvalues --    0.93528   0.93696   0.94567   0.95826   0.96007
 Alpha virt. eigenvalues --    0.96786   0.97649   0.98156   0.98550   0.98916
 Alpha virt. eigenvalues --    0.99325   0.99755   0.99990   1.01012   1.01122
 Alpha virt. eigenvalues --    1.01522   1.01893   1.02355   1.03197   1.03779
 Alpha virt. eigenvalues --    1.04012   1.04389   1.04694   1.04962   1.06017
 Alpha virt. eigenvalues --    1.06286   1.06757   1.06927   1.07438   1.08486
 Alpha virt. eigenvalues --    1.08900   1.09485   1.09701   1.10050   1.10430
 Alpha virt. eigenvalues --    1.10828   1.11545   1.11987   1.12137   1.12773
 Alpha virt. eigenvalues --    1.13593   1.13784   1.13951   1.14360   1.14665
 Alpha virt. eigenvalues --    1.15733   1.16209   1.16713   1.16967   1.17320
 Alpha virt. eigenvalues --    1.17780   1.18882   1.19358   1.20100   1.20233
 Alpha virt. eigenvalues --    1.21369   1.22039   1.22349   1.22662   1.22897
 Alpha virt. eigenvalues --    1.23466   1.24113   1.24427   1.24730   1.25240
 Alpha virt. eigenvalues --    1.25859   1.26870   1.27192   1.27769   1.28835
 Alpha virt. eigenvalues --    1.29224   1.29582   1.30512   1.30934   1.31042
 Alpha virt. eigenvalues --    1.32138   1.32367   1.33174   1.33762   1.34329
 Alpha virt. eigenvalues --    1.34534   1.35163   1.35609   1.36629   1.37349
 Alpha virt. eigenvalues --    1.37487   1.38812   1.39347   1.40909   1.42051
 Alpha virt. eigenvalues --    1.42530   1.43338   1.45762   1.46567   1.47694
 Alpha virt. eigenvalues --    1.48387   1.48895   1.49168   1.50435   1.51211
 Alpha virt. eigenvalues --    1.51465   1.53203   1.53244   1.54842   1.56012
 Alpha virt. eigenvalues --    1.57662   1.57810   1.58741   1.59246   1.61273
 Alpha virt. eigenvalues --    1.61987   1.62516   1.62665   1.63477   1.64641
 Alpha virt. eigenvalues --    1.64795   1.65259   1.65915   1.66688   1.67545
 Alpha virt. eigenvalues --    1.68737   1.69173   1.69969   1.71007   1.71468
 Alpha virt. eigenvalues --    1.72066   1.72673   1.73619   1.74157   1.74976
 Alpha virt. eigenvalues --    1.76734   1.77418   1.77934   1.79356   1.80378
 Alpha virt. eigenvalues --    1.80971   1.82206   1.82246   1.83063   1.85968
 Alpha virt. eigenvalues --    1.86163   1.87340   1.88086   1.88664   1.90054
 Alpha virt. eigenvalues --    1.90942   1.91271   1.92920   1.93430   1.93753
 Alpha virt. eigenvalues --    1.94376   1.95324   1.95420   1.96235   1.96669
 Alpha virt. eigenvalues --    1.97175   1.97786   1.98537   1.99398   2.00341
 Alpha virt. eigenvalues --    2.00575   2.00952   2.01795   2.02881   2.03437
 Alpha virt. eigenvalues --    2.03883   2.04240   2.05003   2.06327   2.06899
 Alpha virt. eigenvalues --    2.07929   2.08893   2.09542   2.10063   2.11216
 Alpha virt. eigenvalues --    2.11960   2.13016   2.13719   2.14316   2.14957
 Alpha virt. eigenvalues --    2.17138   2.18711   2.19959   2.22015   2.23362
 Alpha virt. eigenvalues --    2.24116   2.24947   2.25641   2.26868   2.27807
 Alpha virt. eigenvalues --    2.30377   2.31679   2.32915   2.35144   2.36243
 Alpha virt. eigenvalues --    2.37352   2.38770   2.39396   2.39782   2.40655
 Alpha virt. eigenvalues --    2.42105   2.42973   2.43509   2.44125   2.44770
 Alpha virt. eigenvalues --    2.45412   2.47650   2.48575   2.49514   2.51333
 Alpha virt. eigenvalues --    2.51811   2.51964   2.53444   2.54867   2.56021
 Alpha virt. eigenvalues --    2.56393   2.57312   2.61466   2.63822   2.65767
 Alpha virt. eigenvalues --    2.66540   2.71220   2.72327   2.73212   2.73423
 Alpha virt. eigenvalues --    2.74120   2.74256   2.75172   2.76573   2.77411
 Alpha virt. eigenvalues --    2.77698   2.78229   2.78859   2.80084   2.80403
 Alpha virt. eigenvalues --    2.81274   2.82323   2.83285   2.83609   2.84699
 Alpha virt. eigenvalues --    2.84864   2.86694   2.87009   2.88599   2.90155
 Alpha virt. eigenvalues --    2.90988   2.91310   2.92310   2.93522   2.93916
 Alpha virt. eigenvalues --    2.94445   2.94776   2.96648   2.97277   2.98036
 Alpha virt. eigenvalues --    2.98480   2.99953   3.00685   3.00744   3.01717
 Alpha virt. eigenvalues --    3.01758   3.02129   3.03588   3.03958   3.04580
 Alpha virt. eigenvalues --    3.05160   3.06380   3.06961   3.07415   3.07982
 Alpha virt. eigenvalues --    3.08702   3.09159   3.10004   3.10378   3.10680
 Alpha virt. eigenvalues --    3.11268   3.11786   3.14914   3.15167   3.18371
 Alpha virt. eigenvalues --    3.20838   3.21244   3.23162   3.23417   3.24841
 Alpha virt. eigenvalues --    3.25636   3.26174   3.29389   3.31991   3.33480
 Alpha virt. eigenvalues --    3.34057   3.35031   3.36054   3.36814   3.37527
 Alpha virt. eigenvalues --    3.38185   3.39890   3.41074   3.41959   3.43653
 Alpha virt. eigenvalues --    3.45147   3.45545   3.46160   3.48690   3.49415
 Alpha virt. eigenvalues --    3.50197   3.50604   3.51538   3.52203   3.52675
 Alpha virt. eigenvalues --    3.54793   3.57841   3.58316   3.59545   3.61285
 Alpha virt. eigenvalues --    3.62757   3.63411   3.64989   3.65068   3.66658
 Alpha virt. eigenvalues --    3.66934   3.67833   3.70705   3.73454   3.75021
 Alpha virt. eigenvalues --    3.77666   3.81318   3.81719   3.82093   3.83054
 Alpha virt. eigenvalues --    3.83765   3.85546   3.86677   3.89356   3.90079
 Alpha virt. eigenvalues --    3.90939   3.92735   3.93100   3.96449   4.00737
 Alpha virt. eigenvalues --    4.01460   4.02354   4.11127   4.12099   4.17058
 Alpha virt. eigenvalues --    4.19045   4.24336   4.25838   4.31424   4.33744
 Alpha virt. eigenvalues --    4.34498   4.35510   4.50074   4.52078   4.75980
 Alpha virt. eigenvalues --    4.90255   4.91105   4.94079   4.94568   5.06502
 Alpha virt. eigenvalues --    5.08806   5.12562   5.19864   5.22844   5.23776
 Alpha virt. eigenvalues --    5.25485   5.27302   5.29416   5.30742   5.32775
 Alpha virt. eigenvalues --    5.36129   5.38401   5.39571   5.39889   5.41672
 Alpha virt. eigenvalues --    5.49492   5.52509   5.57224   5.58761   5.79682
 Alpha virt. eigenvalues --    5.97032   8.53531  17.68779  17.75283  17.76406
 Alpha virt. eigenvalues --   23.56046  23.58215  23.64118  23.77956  23.79534
 Alpha virt. eigenvalues --   23.83893  23.89163  23.94448  24.03230  24.04730
 Alpha virt. eigenvalues --   24.05803  24.05935  24.09243  24.16692  24.18971
 Alpha virt. eigenvalues --   24.20169  24.20254  24.24432  24.27121  24.27781
 Alpha virt. eigenvalues --   24.29461  24.33172  24.35590  24.35867  24.36402
 Alpha virt. eigenvalues --   35.66214  49.95503  49.96762  50.07937  50.13059
 Alpha virt. eigenvalues --   50.15605  50.16518  50.22240 189.73673
 Electronic spatial extent (au):  <R**2>=         155312.0764
 Charge=              0.0000 electrons
 Dipole moment (field-independent basis, Debye):
    X=            -17.6766    Y=             -3.6340    Z=             -6.9996  Tot=             19.3562
 Quadrupole moment (field-independent basis, Debye-Ang):
   XX=           -445.6826   YY=           -212.0443   ZZ=           -304.3240
   XY=            -62.5727   XZ=           -221.2348   YZ=            -66.5832
 Traceless Quadrupole moment (field-independent basis, Debye-Ang):
   XX=           -124.9990   YY=            108.6394   ZZ=             16.3596
   XY=            -62.5727   XZ=           -221.2348   YZ=            -66.5832
 Octapole moment (field-independent basis, Debye-Ang**2):
  XXX=          -8154.3480  YYY=          -2128.1912  ZZZ=          -5807.0385  XYY=          -1974.4645
  XXY=          -1326.1929  XXZ=          -4525.9768  XZZ=          -4411.4501  YZZ=          -1585.3063
  YYZ=          -1695.8956  XYZ=           -774.3705
 Hexadecapole moment (field-independent basis, Debye-Ang**3):
 XXXX=        -140133.6933 YYYY=         -19402.8699 ZZZZ=         -90140.7153 XXXY=         -26877.5900
 XXXZ=         -76526.8138 YYYX=         -21556.1047 YYYZ=         -14269.9236 ZZZX=         -70367.6191
 ZZZY=         -24737.7401 XXYY=         -22724.2582 XXZZ=         -66604.7208 YYZZ=         -18356.5647
 XXYZ=         -12927.7302 YYXZ=         -15456.8320 ZZXY=         -16688.6831
 N-N= 3.776832476467D+03 E-N=-1.212660856756D+04  KE= 1.950042638992D+03
  Exact polarizability: 389.001 112.769 337.719 -89.618-127.953 370.892
 Approx polarizability: 381.663  71.189 383.617 -71.087 -98.206 396.607
 No NMR shielding tensors so no spin-rotation constants.
 Leave Link  601 at Tue Jan 19 18:10:05 2021, MaxMem=  5368709120 cpu:        10.6
 (Enter /usr/local/bin/G09/G09d//g09/l602.exe)
 FitSet:  NAtFit=    61 NAtPot=    61 NAtFrz=     0 MDM=    65 TotChg=   0.00000
 Breneman (CHELPG) radii used.
 Generate Potential Derived Charges using the Breneman model, NDens= 1.
 Grid spacing= 0.300 Box extension= 2.800
 NStep X,Y,Z=   62     50     52   Total possible points=      161200
 Number of Points to Fit=   30042

 **********************************************************************

            Electrostatic Properties Using The SCF Density

 **********************************************************************

       Atomic Center    1 is at   4.981328  0.071552 10.993252
       Atomic Center    2 is at   5.237190 -0.321152 11.796859
       Atomic Center    3 is at   3.721703 -0.115648 10.538604
       Atomic Center    4 is at   3.115443 -0.622336 11.027606
       Atomic Center    5 is at   3.348624  0.456768  9.338043
       Atomic Center    6 is at   2.486605  0.336960  9.009138
       Atomic Center    7 is at   4.260512  1.200576  8.637825
       Atomic Center    8 is at   4.008560  1.584128  7.828959
       Atomic Center    9 is at   5.554116  1.395680  9.108582
       Atomic Center   10 is at   6.571241  2.139654  8.393078
       Atomic Center   11 is at   7.424292  2.184832  8.762582
       Atomic Center   12 is at   6.352534  2.762240  7.236733
       Atomic Center   13 is at   5.487633  2.713152  6.900267
       Atomic Center   14 is at   7.313628  3.510208  6.440030
       Atomic Center   15 is at   6.859881  4.162080  5.285657
       Atomic Center   16 is at   5.964942  4.086784  5.044526
       Atomic Center   17 is at   7.706735  4.910298  4.500788
       Atomic Center   18 is at   9.054207  5.005312  4.845144
       Atomic Center   19 is at   9.516534  4.350528  5.975355
       Atomic Center   20 is at  10.415511  4.407104  6.204980
       Atomic Center   21 is at   8.656140  3.617536  6.763017
       Atomic Center   22 is at   8.980968  3.189056  7.521586
       Atomic Center   23 is at   7.209337  0.995072 10.903999
       Atomic Center   24 is at   7.243593  0.545792 11.752479
       Atomic Center   25 is at   7.874112  0.624832 10.319170
       Atomic Center   26 is at   7.379610  1.931072 11.030893
       Atomic Center   27 is at  11.211774  5.821504  4.267876
       Atomic Center   28 is at  11.572521  4.932928  4.304859
       Atomic Center   29 is at  11.643778  6.314048  3.566836
       Atomic Center   30 is at  11.360398  6.262464  5.106986
       Atomic Center   31 is at   5.874834  0.814528 10.306020
       Atomic Center   32 is at   7.303978  5.576563  3.386193
       Atomic Center   33 is at   9.824057  5.755027  4.009650
       Atomic Center   34 is at   6.491451  5.358080  3.188784
       Atomic Center   35 is at  11.625734  3.489158  8.897037
       Atomic Center   36 is at  11.799321  4.840243  8.824879
       Atomic Center   37 is at  11.333829  5.398848  9.405271
       Atomic Center   38 is at  12.684164  5.393856  7.871531
       Atomic Center   39 is at  12.895367  6.789120  7.750719
       Atomic Center   40 is at  12.443058  7.374848  8.313851
       Atomic Center   41 is at  13.756273  7.278336  6.816602
       Atomic Center   42 is at  13.881943  8.196864  6.744115
       Atomic Center   43 is at  14.450900  6.418048  5.966807
       Atomic Center   44 is at  15.035548  6.766656  5.332174
       Atomic Center   45 is at  14.279507  5.076032  6.059348
       Atomic Center   46 is at  14.754396  4.512768  5.493257
       Atomic Center   47 is at  13.388097  4.521920  7.004971
       Atomic Center   48 is at  13.186172  3.129984  7.116085
       Atomic Center   49 is at  13.649195  2.551744  6.553445
       Atomic Center   50 is at  12.324882  2.624128  8.035244
       Atomic Center   51 is at  12.196412  1.704768  8.095239
       Atomic Center   52 is at   9.413483  3.682848 10.235176
       Atomic Center   53 is at  11.304968  2.659072 11.327088
       Atomic Center   54 is at  10.131317  1.509414  9.570298
       Atomic Center   55 is at  10.537122  2.790195 10.108447
       Atomic Center   56 is at   3.560232  2.189824  5.300286
       Atomic Center   57 is at   4.022351  2.146560  4.620450
       Atomic Center   58 is at   3.325427  3.020160  5.397922
       Atomic Center   59 is at   4.825874  4.922944  2.761915
       Atomic Center   60 is at   4.705227  4.293120  2.368577
       Atomic Center   61 is at   4.096599  5.366400  2.843607
   30042 points will be used for fitting atomic charges
 Fitting point charges to electrostatic potential
 Charges from ESP fit, RMS=   0.00410 RRMS=   0.10637:
 ESP charges:
               1
     1  C    0.073956
     2  H    0.139851
     3  C   -0.259856
     4  H    0.167293
     5  C    0.121711
     6  H    0.105911
     7  C   -0.428463
     8  H    0.286178
     9  C    0.488323
    10  C   -0.492563
    11  H    0.287926
    12  C    0.062111
    13  H    0.081285
    14  C    0.077657
    15  C   -0.466273
    16  H    0.192853
    17  C    0.379254
    18  C    0.310191
    19  C   -0.356216
    20  H    0.209866
    21  C   -0.033716
    22  H    0.059392
    23  C   -0.053983
    24  H    0.094871
    25  H    0.121328
    26  H    0.112575
    27  C    0.146893
    28  H   -0.004308
    29  H    0.047600
    30  H    0.023758
    31  N   -0.121193
    32  O   -0.856505
    33  O   -0.316897
    34  H    0.709927
    35  C   -0.079989
    36  C   -0.194626
    37  H    0.127928
    38  C    0.152393
    39  C   -0.246175
    40  H    0.156197
    41  C   -0.097036
    42  H    0.105530
    43  C   -0.105679
    44  H    0.111511
    45  C   -0.250968
    46  H    0.142518
    47  C    0.203995
    48  C   -0.325198
    49  H    0.166934
    50  C   -0.021943
    51  H    0.096087
    52  O   -0.760182
    53  O   -0.765186
    54  O   -0.776168
    55  S    1.502952
    56  O   -0.949902
    57  H    0.481253
    58  H    0.460908
    59  O   -1.111882
    60  H    0.536897
    61  H    0.529093
 Sum of ESP charges =   0.00000
 ESP charges with hydrogens summed into heavy atoms:
               1
     1  C    0.213807
     3  C   -0.092563
     5  C    0.227622
     7  C   -0.142285
     9  C    0.488323
    10  C   -0.204637
    12  C    0.143396
    14  C    0.077657
    15  C   -0.273420
    17  C    0.379254
    18  C    0.310191
    19  C   -0.146349
    21  C    0.025676
    23  C    0.274790
    27  C    0.213942
    31  N   -0.121193
    32  O   -0.146578
    33  O   -0.316897
    35  C   -0.079989
    36  C   -0.066698
    38  C    0.152393
    39  C   -0.089978
    41  C    0.008494
    43  C    0.005832
    45  C   -0.108450
    47  C    0.203995
    48  C   -0.158264
    50  C    0.074144
    52  O   -0.760182
    53  O   -0.765186
    54  O   -0.776168
    55  S    1.502952
    56  O   -0.007741
    59  O   -0.045892
 Charge=   0.00000 Dipole=   -17.5267    -3.6565    -6.8681 Tot=    19.1762
 -----------------------------------------------------------------

              Electrostatic Properties (Atomic Units)

 -----------------------------------------------------------------
    Center     Electric         -------- Electric Field --------
               Potential          X             Y             Z
 -----------------------------------------------------------------
    1 Atom    -14.686298
    2 Atom     -1.025692
    3 Atom    -14.736437
    4 Atom     -1.045875
    5 Atom    -14.723398
    6 Atom     -1.045805
    7 Atom    -14.735806
    8 Atom     -1.054754
    9 Atom    -14.653948
   10 Atom    -14.773008
   11 Atom     -1.095884
   12 Atom    -14.756759
[...]
     6         -2.92232194         -5.34039629        -20.71207366
     6         -4.37842563         -3.62407476        -22.04996969
     1         -4.12986185         -3.43284173        -23.77836801
     6         -6.19336572         -2.20005930        -20.84334878
     1         -7.16264482         -1.06488999        -21.77027929
     6        -13.77511242          3.75227474        -20.24590606
     1        -15.10738564          4.88849009        -20.72544406
     1        -12.19094481          4.38451159        -20.86213797
     1        -14.09213377          2.11481475        -20.95854550
     6         -0.54037505         -6.53426044        -24.33058367
     1         -0.12859454         -4.79960197        -24.66316422
     1          0.86859102         -7.58686076        -24.77179780
     1         -1.98456146         -7.01291641        -25.31693081
     7        -13.67741734          3.55492396        -17.47019862
     8         -1.82212124         -7.32603719        -16.89729688
     8         -1.09511842         -6.83371049        -21.73568481
     1         -2.02445054         -7.18723007        -15.28266300
     6         -7.67103383         -0.50001183        -27.38088360
     6         -7.74088392         -2.97139522        -28.11048289
     1         -9.21628522         -3.90453062        -27.90196017
     6         -5.57942450         -4.11817325        -29.18243291
     6         -5.54827697         -6.67919256        -29.95937375
     1         -6.99069212         -7.66524285        -29.77142957
     6         -3.42221072         -7.70630107        -30.98030926
     1         -3.42365466         -9.39294866        -31.47352727
     6         -1.24231111         -6.25888200        -31.29313055
     1          0.19808056         -6.98664209        -31.99208397
     6         -1.20818833         -3.79643931        -30.58446400
     1          0.25052285         -2.84741782        -30.81732340
     6         -3.36100647         -2.65304602        -29.49572499
     6         -3.36941549         -0.09938591        -28.72934915
     1         -1.92178555          0.87560436        -28.93877584
     6         -5.46598968          0.95295544        -27.69162567
     1         -5.44484007          2.63603638        -27.18474384
     8        -11.64639923         -0.90821478        -24.54624016
     8        -11.90206531          1.81383057        -28.19342166
     8         -9.45616298          3.02758133        -24.55959450
    16        -10.39247333          0.95739670        -26.08206087
     8         -7.06095656         -1.30343882        -10.54298610
     1         -5.53903518         -1.35503084        -10.86056581
     1         -7.59897301         -2.85316025        -10.49908068
     8         -2.40390667         -6.93399811        -11.96220955
     1         -1.66358414         -5.94287051        -11.26176088
     1         -3.18443931         -7.89486357        -10.91681874

 Electric dipole moment (dipole orientation):
 (Debye = 10**-18 statcoulomb cm , SI units = C m)
                  (au)            (Debye)         (10**-30 SI)
   Tot        0.761531D+01      0.193562D+02      0.645652D+02
   x          0.000000D+00      0.000000D+00      0.000000D+00
   y          0.000000D+00      0.000000D+00      0.000000D+00
   z          0.761531D+01      0.193562D+02      0.645652D+02

 Dipole polarizability, Alpha (dipole orientation).
 (esu units = cm**3 , SI units = C**2 m**2 J**-1)
 Alpha(0;0):
               (au)            (10**-24 esu)      (10**-40 SI)
   iso        0.365871D+03      0.542165D+02      0.603239D+02
   aniso      0.336734D+03      0.498988D+02      0.555199D+02
   xx         0.396082D+03      0.586933D+02      0.653051D+02
   yx        -0.154556D+03     -0.229028D+02     -0.254828D+02
   yy         0.354601D+03      0.525464D+02      0.584658D+02
   zx        -0.923751D+02     -0.136886D+02     -0.152306D+02
   zy         0.683865D+02      0.101338D+02      0.112754D+02
   zz         0.346930D+03      0.514097D+02      0.572010D+02
 Alpha(-w;w) w=  632.8nm:
                  (au)         (10**-24 esu)      (10**-40 SI)
   iso        0.415105D+03      0.615122D+02      0.684415D+02
   aniso      0.458264D+03      0.679078D+02      0.755576D+02
   xx         0.465012D+03      0.689076D+02      0.766701D+02
   yx        -0.206099D+03     -0.305408D+02     -0.339812D+02
   yy         0.403247D+03      0.597550D+02      0.664864D+02
   zx        -0.127300D+03     -0.188639D+02     -0.209889D+02
   zy         0.963344D+02      0.142753D+02      0.158834D+02
   zz         0.377056D+03      0.558739D+02      0.621681D+02

 First dipole hyperpolarizability, Beta (dipole orientation).
 ||, _|_  parallel and perpendicular components, (z) with respect to z axis,
 vector components x,y,z.  Values do not include the 1/n! factor of 1/2.
 (esu units = statvolt**-1 cm**4 , SI units = C**3 m**3 J**-2)
 Beta(0;0,0):
               (au)            (10**-30 esu)      (10**-50 SI)
   || (z)     0.276079D+04      0.238511D+02      0.885209D+01
   _|_(z)     0.920263D+03      0.795036D+01      0.295070D+01
   x         -0.223423D+05     -0.193020D+03     -0.716374D+02
   y          0.178403D+05      0.154126D+03      0.572025D+02
   z          0.138039D+05      0.119255D+03      0.442604D+02
   ||         0.634981D+04      0.548574D+02      0.203598D+02
   xxx       -0.382487D+04     -0.330439D+02     -0.122639D+02
   xxy        0.299069D+04      0.258373D+02      0.958924D+01
   yxy       -0.235720D+04     -0.203644D+02     -0.755805D+01
   yyy        0.190752D+04      0.164795D+02      0.611621D+01
   xxz        0.236016D+04      0.203900D+02      0.756754D+01
   yxz       -0.187265D+04     -0.161783D+02     -0.600440D+01
   yyz        0.146698D+04      0.126736D+02      0.470367D+01
   zxz       -0.126535D+04     -0.109316D+02     -0.405717D+01
   zyz        0.104855D+04      0.905868D+01      0.336204D+01
   zzz        0.774171D+03      0.668823D+01      0.248227D+01
 Beta(-w;w,0) w=  632.8nm:
                  (au)         (10**-30 esu)      (10**-50 SI)
   || (z)     0.668153D+04      0.577232D+02      0.214234D+02
   _|_(z)     0.226988D+04      0.196100D+02      0.727806D+01
   x         -0.550441D+05     -0.475538D+03     -0.176491D+03
   y          0.438347D+05      0.378698D+03      0.140550D+03
   z          0.334076D+05      0.288616D+03      0.107117D+03
   ||         0.155787D+05      0.134588D+03      0.499510D+02
   xxx       -0.942087D+04     -0.813890D+02     -0.302067D+02
   yxx        0.739693D+04      0.639038D+02      0.237172D+02
   yyx       -0.582784D+04     -0.503480D+02     -0.186862D+02
   zxx        0.562234D+04      0.485726D+02      0.180273D+02
   zyx       -0.442839D+04     -0.382578D+02     -0.141990D+02
   zzx       -0.320161D+04     -0.276594D+02     -0.102655D+02
   xxy        0.740209D+04      0.639483D+02      0.237338D+02
   yxy       -0.586041D+04     -0.506294D+02     -0.187906D+02
   yyy        0.469843D+04      0.405907D+02      0.150649D+02
   zxy       -0.448298D+04     -0.387295D+02     -0.143741D+02
   zyy        0.352988D+04      0.304954D+02      0.113181D+02
   zzy        0.263544D+04      0.227681D+02      0.845017D+01
   xxz        0.568684D+04      0.491299D+02      0.182341D+02
   yxz       -0.453052D+04     -0.391401D+02     -0.145265D+02
   yyz        0.359349D+04      0.310450D+02      0.115220D+02
   zxz       -0.301559D+04     -0.260524D+02     -0.966907D+01
   zyz        0.245403D+04      0.212009D+02      0.786850D+01
   zzz        0.194095D+04      0.167683D+02      0.622340D+01
 Beta(-2w;w,w) w=  632.8nm:
                  (au)         (10**-30 esu)      (10**-50 SI)
   || (z)    -0.122525D+05     -0.105852D+03     -0.392860D+02
   _|_(z)    -0.540068D+04     -0.466577D+02     -0.173165D+02
   x          0.872121D+05      0.753444D+03      0.279633D+03
   y         -0.679193D+05     -0.586770D+03     -0.217774D+03
   z         -0.612626D+05     -0.529261D+03     -0.196430D+03
   ||         0.252761D+05      0.218366D+03      0.810444D+02
   xxx        0.151967D+05      0.131288D+03      0.487262D+02
   yxx       -0.117132D+05     -0.101193D+03     -0.375567D+02
   zxx       -0.123200D+05     -0.106435D+03     -0.395022D+02
   xyx       -0.121228D+05     -0.104731D+03     -0.388700D+02
   yyx        0.929529D+04      0.803040D+02      0.298041D+02
   zyx        0.995587D+04      0.860110D+02      0.319221D+02
   xyy        0.952031D+04      0.822481D+02      0.305256D+02
   yyy       -0.718660D+04     -0.620866D+02     -0.230428D+02
   zyy       -0.820334D+04     -0.708705D+02     -0.263029D+02
   xzx       -0.970723D+04     -0.838629D+02     -0.311249D+02
   yzx        0.766844D+04      0.662494D+02      0.245878D+02
   zzx        0.554075D+04      0.478678D+02      0.177656D+02
   xzy        0.855928D+04      0.739455D+02      0.274441D+02
   yzy       -0.686653D+04     -0.593215D+02     -0.220166D+02
   zzy       -0.444118D+04     -0.383684D+02     -0.142400D+02
   xzz        0.242944D+04      0.209884D+02      0.778965D+01
   yzz       -0.151846D+04     -0.131183D+02     -0.486872D+01
   zzz       -0.253058D+04     -0.218623D+02     -0.811396D+01

 Second dipole hyperpolarizability, Gamma (dipole orientation).
 ||, _|_  isotropic parallel and perpendicular components.
 Values do not include the 1/n! factor of 1/6.
 (esu units = statvolt**-2 cm**5 , SI units = C**4 m**4 J**-3)
 Gamma(0;0,0,0):
               (au)            (10**-36 esu)      (10**-61 SI)
   ||         0.279009D+06      0.140528D+03      0.173973D+03
   _|_        0.930031D+05      0.468428D+02      0.579910D+02
   xxxx       0.326526D+06      0.164461D+03      0.203601D+03
   xxyx      -0.221484D+06     -0.111555D+03     -0.138104D+03
   xxyy       0.185278D+06      0.933190D+02      0.115528D+03
   yxyy      -0.143428D+06     -0.722404D+02     -0.894329D+02
   yyyy       0.156642D+06      0.788957D+02      0.976722D+02
   xxzx      -0.182028D+06     -0.916819D+02     -0.113501D+03
   xxzy       0.141817D+06      0.714289D+02      0.884283D+02
   yxzy      -0.115535D+06     -0.581913D+02     -0.720402D+02
   yyzy       0.956002D+05      0.481509D+02      0.596104D+02
   xxzz       0.121714D+06      0.613038D+02      0.758934D+02
   yxzz      -0.852814D+05     -0.429537D+02     -0.531762D+02
   yyzz       0.890837D+05      0.448688D+02      0.555471D+02
   zxzz      -0.574930D+05     -0.289575D+02     -0.358490D+02
   zyzz       0.481188D+05      0.242360D+02      0.300039D+02
   zzzz       0.119661D+06      0.602697D+02      0.746133D+02
 Gamma(-w;w,0,0) w=  632.8nm:
                  (au)         (10**-36 esu)      (10**-61 SI)
   ||         0.922494D+06      0.464632D+03      0.575210D+03
   _|_        0.300639D+06      0.151423D+03      0.187460D+03
   xxxx       0.113665D+07      0.572497D+03      0.708745D+03
   yxxx      -0.850870D+06     -0.428558D+03     -0.530550D+03
   yyxx       0.682567D+06      0.343788D+03      0.425606D+03
   zxxx      -0.657974D+06     -0.331401D+03     -0.410272D+03
   zyxx       0.514898D+06      0.259338D+03      0.321058D+03
   zzxx       0.416322D+06      0.209689D+03      0.259593D+03
   xxyx      -0.851156D+06     -0.428701D+03     -0.530728D+03
   yxyx       0.686316D+06      0.345677D+03      0.427944D+03
   yyyx      -0.541076D+06     -0.272523D+03     -0.337381D+03
   zxyx       0.521353D+06      0.262590D+03      0.325083D+03
   zyyx      -0.416237D+06     -0.209646D+03     -0.259540D+03
   zzyx      -0.320339D+06     -0.161345D+03     -0.199744D+03
   xxyy       0.691581D+06      0.348329D+03      0.431227D+03
   yxyy      -0.547716D+06     -0.275868D+03     -0.341522D+03
   yyyy       0.488794D+06      0.246191D+03      0.304782D+03
   zxyy      -0.425002D+06     -0.214061D+03     -0.265005D+03
   zyyy       0.342495D+06      0.172504D+03      0.213558D+03
   zzyy       0.288310D+06      0.145213D+03      0.179772D+03
   xxzx      -0.653563D+06     -0.329180D+03     -0.407521D+03
   yxzx       0.517298D+06      0.260547D+03      0.322555D+03
   yyzx      -0.415793D+06     -0.209423D+03     -0.259263D+03
   zxzx       0.387398D+06      0.195121D+03      0.241557D+03
   zyzx      -0.293775D+06     -0.147965D+03     -0.183180D+03
   zzzx      -0.203979D+06     -0.102738D+03     -0.127189D+03
   xxzy       0.516342D+06      0.260066D+03      0.321959D+03
   yxzy      -0.417593D+06     -0.210329D+03     -0.260385D+03
   yyzy       0.339623D+06      0.171058D+03      0.211768D+03
   zxzy      -0.296431D+06     -0.149303D+03     -0.184836D+03
   zyzy       0.263616D+06      0.132775D+03      0.164375D+03
   zzzy       0.167804D+06      0.845176D+02      0.104632D+03
   xxzz       0.399075D+06      0.201002D+03      0.248838D+03
   yxzz      -0.305986D+06     -0.154116D+03     -0.190794D+03
   yyzz       0.272253D+06      0.137126D+03      0.169760D+03
   zxzz      -0.192384D+06     -0.968981D+02     -0.119959D+03
   zyzz       0.157135D+06      0.791440D+02      0.979796D+02
   zzzz       0.288362D+06      0.145239D+03      0.179804D+03
 Gamma(-2w;w,w,0) w=  632.8nm:
                  (au)         (10**-36 esu)      (10**-61 SI)
   ||         0.235824D+07      0.118777D+04      0.147045D+04
   _|_       -0.735789D+05     -0.370595D+02      0.187460D+03
   xxxx       0.230670D+07      0.116181D+04      0.143831D+04
   yxxx      -0.220680D+07     -0.111150D+04     -0.137603D+04
   zxxx       0.298335D+07      0.150262D+04      0.186023D+04
   xyxx      -0.160305D+07     -0.807406D+03     -0.999561D+03
   yyxx       0.163137D+07      0.821672D+03      0.101722D+04
   zyxx      -0.252001D+07     -0.126925D+04     -0.157132D+04
   xyyx       0.126488D+07      0.637080D+03      0.788699D+03
   yyyx      -0.127870D+07     -0.644041D+03     -0.797317D+03
   zyyx       0.221468D+07      0.111547D+04      0.138094D+04
   xzxx      -0.171126D+07     -0.861909D+03     -0.106704D+04
   yzxx       0.162778D+07      0.819864D+03      0.101498D+04
   zzxx       0.100849D+06      0.507947D+02      0.628834D+02
   xzyx       0.566466D+06      0.285312D+03      0.353213D+03
   yzyx      -0.546315D+06     -0.275163D+03     -0.340648D+03
   zzyx      -0.213559D+06     -0.107563D+03     -0.133162D+03
   xzzx       0.435187D+07      0.219190D+04      0.271355D+04
   yzzx      -0.414115D+07     -0.208577D+04     -0.258217D+04
   zzzx       0.775822D+05      0.390758D+02      0.483754D+02
   xxxy      -0.434618D+07     -0.218904D+04     -0.271001D+04
   yxxy       0.445912D+07      0.224593D+04      0.278043D+04
   zxxy      -0.325375D+07     -0.163881D+04     -0.202883D+04
   xyxy       0.401662D+07      0.202305D+04      0.250451D+04
   yyxy      -0.415465D+07     -0.209257D+04     -0.259058D+04
   zyxy       0.298625D+07      0.150408D+04      0.186204D+04
   xyyy      -0.391881D+07     -0.197379D+04     -0.244353D+04
   yyyy       0.416352D+07      0.209704D+04      0.259611D+04
   zyyy      -0.284910D+07     -0.143501D+04     -0.177652D+04
   xzxy      -0.263711D+07     -0.132823D+04     -0.164434D+04
   yzxy       0.295538D+07      0.148853D+04      0.184279D+04
   zzxy      -0.162563D+07     -0.818781D+03     -0.101364D+04
   xzyy       0.123649D+07      0.622780D+03      0.770996D+03
   yzyy      -0.136011D+07     -0.685045D+03     -0.848078D+03
   zzyy       0.850751D+06      0.428497D+03      0.530476D+03
   xzzy       0.590223D+07      0.297278D+04      0.368027D+04
   yzzy      -0.662543D+07     -0.333703D+04     -0.413121D+04
   zzzy       0.365154D+07      0.183917D+04      0.227687D+04
   xxxz      -0.161733D+07     -0.814600D+03     -0.100847D+04
   yxxz       0.167709D+07      0.844697D+03      0.104573D+04
   zxxz      -0.216908D+07     -0.109250D+04     -0.135250D+04
   xyxz       0.124356D+07      0.626342D+03      0.775406D+03
   yyxz      -0.132098D+07     -0.665335D+03     -0.823679D+03
   zyxz       0.189331D+07      0.953603D+03      0.118055D+04
   xyyz      -0.102474D+07     -0.516130D+03     -0.638964D+03
   yyyz       0.110325D+07      0.555675D+03      0.687920D+03
   zyyz      -0.166459D+07     -0.838406D+03     -0.103794D+04
   xzxz       0.583847D+06      0.294066D+03      0.364051D+03
   yzxz      -0.524575D+06     -0.264213D+03     -0.327093D+03
   zzxz      -0.250673D+06     -0.126256D+03     -0.156304D+03
   xzyz      -0.156371D+06     -0.787592D+02     -0.975031D+02
   yzyz       0.170252D+06      0.857509D+02      0.106159D+03
   zzyz       0.264038D+06      0.132988D+03      0.164637D+03
   xzzz      -0.970597D+06     -0.488860D+03     -0.605204D+03
   yzzz       0.100728D+07      0.507334D+03      0.628075D+03
   zzzz       0.546273D+06      0.275141D+03      0.340622D+03

 ----------------------------------------------------------------------
 1\1\GINC-FLAME7\SP\RwB97XD\6-311+G(d)\C25H27N1O7S1\DANIELMACHADO\20-Ja
 n-2021\0\\#p wB97XD/6-311+g(d) polar=gamma pop=chelpg density=current 
 NoSymm\\ONL_VSNS_0_wB97XD\\0,1\C,0,4.981328,0.071552,10.993252\H,0,5.2
 3719,-0.321152,11.796859\C,0,3.721703,-0.115648,10.538604\H,0,3.115443
 ,-0.622336,11.027606\C,0,3.348624,0.456768,9.338043\H,0,2.486605,0.336
 96,9.009138\C,0,4.260512,1.200576,8.637825\H,0,4.00856,1.584128,7.8289
 59\C,0,5.554116,1.39568,9.108582\C,0,6.571241,2.139654,8.393078\H,0,7.
 424292,2.184832,8.762582\C,0,6.352534,2.76224,7.236733\H,0,5.487633,2.
 713152,6.900267\C,0,7.313628,3.510208,6.44003\C,0,6.859881,4.16208,5.2
 85657\H,0,5.964942,4.086784,5.044526\C,0,7.706735,4.910298,4.500788\C,
 0,9.054207,5.005312,4.845144\C,0,9.516534,4.350528,5.975355\H,0,10.415
 511,4.407104,6.20498\C,0,8.65614,3.617536,6.763017\H,0,8.980968,3.1890
 56,7.521586\C,0,7.209337,0.995072,10.903999\H,0,7.243593,0.545792,11.7
 52479\H,0,7.874112,0.624832,10.31917\H,0,7.37961,1.931072,11.030893\C,
 0,11.211774,5.821504,4.267876\H,0,11.572521,4.932928,4.304859\H,0,11.6
 43778,6.314048,3.566836\H,0,11.360398,6.262464,5.106986\N,0,5.874834,0
 .814528,10.30602\O,0,7.303978,5.576563,3.386193\O,0,9.824057,5.755027,
 4.00965\H,0,6.491451,5.35808,3.188784\C,0,11.625734,3.489158,8.897037\
 C,0,11.799321,4.840243,8.824879\H,0,11.333829,5.398848,9.405271\C,0,12
 .684164,5.393856,7.871531\C,0,12.895367,6.78912,7.750719\H,0,12.443058
 ,7.374848,8.313851\C,0,13.756273,7.278336,6.816602\H,0,13.881943,8.196
 864,6.744115\C,0,14.4509,6.418048,5.966807\H,0,15.035548,6.766656,5.33
 2174\C,0,14.279507,5.076032,6.059348\H,0,14.754396,4.512768,5.493257\C
 ,0,13.388097,4.52192,7.004971\C,0,13.186172,3.129984,7.116085\H,0,13.6
 49195,2.551744,6.553445\C,0,12.324882,2.624128,8.035244\H,0,12.196412,
 1.704768,8.095239\O,0,9.413483,3.682848,10.235176\O,0,11.304968,2.6590
 72,11.327088\O,0,10.131317,1.509414,9.570298\S,0,10.537122,2.790195,10
 .108447\O,0,3.560232,2.189824,5.300286\H,0,4.022351,2.14656,4.62045\H,
 0,3.325427,3.02016,5.397922\O,0,4.825874,4.922944,2.761915\H,0,4.70522
 7,4.29312,2.368577\H,0,4.096599,5.3664,2.843607\\Version=EM64L-G09RevD
 .01\HF=-1947.6391181\RMSD=3.952e-09\Dipole=-6.9545066,-1.4297192,-2.75
 38361\Polar=389.0010203,112.769208,337.719074,-89.6180139,-127.9529001
 ,370.8923256\HyperPolar=-2112.6284552,-2008.5219042,-1829.6722165,-169
 1.8225722,2243.8563287,2071.2401719,1845.8823668,-2396.8580949,-2018.5
 83638,2163.9952642\DQPolar=8969.009267,-2500.7270238,-6468.2822432,424
 9.527969,4009.2624862,1071.301708,2025.6931589,3103.4499592,-5129.1431
 181,6603.7807654,-209.626245,4094.6594662,-5099.1719406,-3495.2806708,
 8594.4526114,-2419.7079371,4717.3553849,523.6733327\Quadrupole=-92.933
 6881,80.7707203,12.1629678,-46.5212602,-164.4826794,-49.5029471\PG=C01
  [X(C25H27N1O7S1)]\\@


 A SLIP OF THE FOOT YOU MAY SOON RECOVER, BUT A SLIP OF THE TONGUE
 YOU MAY NEVER GET OVER. -- BEN FRANKLIN
 Job cpu time:       8 days 18 hours 33 minutes  6.0 seconds.
 File lengths (MBytes):  RWF=   3165 Int=      0 D2E=      0 Chk=    122 Scr=      1
 Normal termination of Gaussian 09 at Wed Jan 20 16:49:31 2021.
Wed Jan 20 16:49:31 BRST 2021
