Mon Jan 18 09:38:09 -02 2021
flame6
 Entering Gaussian System, Link 0=/usr/local/bin/G09/G09d/g09/g09
 Initial command:
 /usr/local/bin/G09/G09d//g09/l1.exe "/work/danielmachado/job-23480/Gau-6597.inp" -scrdir="/work/danielmachado/job-23480/"
 Entering Link 1 = /usr/local/bin/G09/G09d//g09/l1.exe PID=      6599.
  
 Copyright (c) 1988,1990,1992,1993,1995,1998,2003,2009,2013,
            Gaussian, Inc.  All Rights Reserved.
  
 This is part of the Gaussian(R) 09 program.  It is based on
 the Gaussian(R) 03 system (copyright 2003, Gaussian, Inc.),
 the Gaussian(R) 98 system (copyright 1998, Gaussian, Inc.),
 the Gaussian(R) 94 system (copyright 1995, Gaussian, Inc.),
 the Gaussian 92(TM) system (copyright 1992, Gaussian, Inc.),
 the Gaussian 90(TM) system (copyright 1990, Gaussian, Inc.),
 the Gaussian 88(TM) system (copyright 1988, Gaussian, Inc.),
 the Gaussian 86(TM) system (copyright 1986, Carnegie Mellon
 University), and the Gaussian 82(TM) system (copyright 1983,
 Carnegie Mellon University). Gaussian is a federally registered
 trademark of Gaussian, Inc.
  
 This software contains proprietary and confidential information,
 including trade secrets, belonging to Gaussian, Inc.
  
 This software is provided under written license and may be
 used, copied, transmitted, or stored only in accord with that
 written license.
  
 The following legend is applicable only to US Government
 contracts under FAR:
  
                    RESTRICTED RIGHTS LEGEND
  
 Use, reproduction and disclosure by the US Government is
 subject to restrictions as set forth in subparagraphs (a)
 and (c) of the Commercial Computer Software - Restricted
 Rights clause in FAR 52.227-19.
  
 Gaussian, Inc.
 340 Quinnipiac St., Bldg. 40, Wallingford CT 06492
  
  
 ---------------------------------------------------------------
 Warning -- This program may not be used in any manner that
 competes with the business of Gaussian, Inc. or will provide
 assistance to any competitor of Gaussian, Inc.  The licensee
 of this program is prohibited from giving any competitor of
 Gaussian, Inc. access to this program.  By using this program,
 the user acknowledges that Gaussian, Inc. is engaged in the
 business of creating and licensing software in the field of
 computational chemistry and represents and warrants to the
 licensee that it is not a competitor of Gaussian, Inc. and that
 it will not use this program in any manner prohibited above.
 ---------------------------------------------------------------
  

 Cite this work as:
 Gaussian 09, Revision D.01,
 M. J. Frisch, G. W. Trucks, H. B. Schlegel, G. E. Scuseria, 
 M. A. Robb, J. R. Cheeseman, G. Scalmani, V. Barone, B. Mennucci, 
 G. A. Petersson, H. Nakatsuji, M. Caricato, X. Li, H. P. Hratchian, 
 A. F. Izmaylov, J. Bloino, G. Zheng, J. L. Sonnenberg, M. Hada, 
 M. Ehara, K. Toyota, R. Fukuda, J. Hasegawa, M. Ishida, T. Nakajima, 
 Y. Honda, O. Kitao, H. Nakai, T. Vreven, J. A. Montgomery, Jr., 
 J. E. Peralta, F. Ogliaro, M. Bearpark, J. J. Heyd, E. Brothers, 
 K. N. Kudin, V. N. Staroverov, T. Keith, R. Kobayashi, J. Normand, 
 K. Raghavachari, A. Rendell, J. C. Burant, S. S. Iyengar, J. Tomasi, 
 M. Cossi, N. Rega, J. M. Millam, M. Klene, J. E. Knox, J. B. Cross, 
 V. Bakken, C. Adamo, J. Jaramillo, R. Gomperts, R. E. Stratmann, 
 O. Yazyev, A. J. Austin, R. Cammi, C. Pomelli, J. W. Ochterski, 
 R. L. Martin, K. Morokuma, V. G. Zakrzewski, G. A. Voth, 
 P. Salvador, J. J. Dannenberg, S. Dapprich, A. D. Daniels, 
 O. Farkas, J. B. Foresman, J. V. Ortiz, J. Cioslowski, 
 and D. J. Fox, Gaussian, Inc., Wallingford CT, 2013.
 
 ******************************************
 Gaussian 09:  EM64L-G09RevD.01 24-Apr-2013
                18-Jan-2021 
 ******************************************
 %nprocshared=8
 Will use up to    8 processors via shared memory.
 %chk=ONL_VSNS_0_M06L.chk
 %mem=40GB
 ----------------------------------------------------------------
 #p M06L/6-311+g(d) polar=gamma pop=chelpg density=current NoSymm
 ----------------------------------------------------------------
 1/30=1,38=101,83=1,84=49/1,6;
 2/12=2,15=1,17=6,18=5,40=1/2;
 3/5=4,6=6,7=11,11=2,16=1,25=1,30=1,74=-53/1,2,3;
 4/69=2/1;
 5/5=2,38=5,96=-2,98=1/2;
 8/6=4,10=90,11=11/1;
 10/6=20001,13=10,31=1,60=-2,72=3/2;
 6/7=2,8=2,9=2,10=2,12=2,15=8,20=3,22=-1,28=1/1,2;
 1/38=100,84=49/6(1);
 99/9=1/99;
 3/5=4,6=6,7=11,11=2,14=-3,16=1,25=1,30=1,74=-53/1,2,3;
 4/5=5,16=3,69=2/1;
 5/5=2,38=5,96=-2,98=1/2;
 8/6=4,10=90,11=11/1;
 10/6=20001,13=10,31=1,60=-2,72=3/2;
 6/7=2,8=2,9=2,10=2,12=2,15=8,20=3,22=-1,28=1/1,2;
 1/38=100,84=49/6(-6);
 99/9=1/99;
 Leave Link    1 at Mon Jan 18 09:38:09 2021, MaxMem=  5368709120 cpu:         0.4
 (Enter /usr/local/bin/G09/G09d//g09/l101.exe)
 ---------------
 ONL_VSNS_0_M06L
 ---------------
 Symbolic Z-matrix:
 Charge =  0 Multiplicity = 1
 C                     4.98133   0.07155   10.99325 
 H                     5.23719  -0.32115   11.79686 
 C                     3.7217   -0.11565   10.5386 
 H                     3.11544  -0.62234   11.02761 
 C                     3.34862   0.45677   9.33804 
 H                     2.4866    0.33696   9.00914 
 C                     4.26051   1.20058   8.63782 
 H                     4.00856   1.58413   7.82896 
 C                     5.55412   1.39568   9.10858 
 C                     6.57124   2.13965   8.39308 
 H                     7.42429   2.18483   8.76258 
 C                     6.35253   2.76224   7.23673 
 H                     5.48763   2.71315   6.90027 
 C                     7.31363   3.51021   6.44003 
 C                     6.85988   4.16208   5.28566 
 H                     5.96494   4.08678   5.04453 
 C                     7.70674   4.9103    4.50079 
 C                     9.05421   5.00531   4.84514 
 C                     9.51653   4.35053   5.97536 
 H                     10.41551   4.4071    6.20498 
 C                     8.65614   3.61754   6.76302 
 H                     8.98097   3.18906   7.52159 
 C                     7.20934   0.99507   10.904 
 H                     7.24359   0.54579   11.75248 
 H                     7.87411   0.62483   10.31917 
 H                     7.37961   1.93107   11.03089 
 C                     11.21177   5.8215    4.26788 
 H                     11.57252   4.93293   4.30486 
 H                     11.64378   6.31405   3.56684 
 H                     11.3604   6.26246   5.10699 
 N                     5.87483   0.81453   10.30602 
 O                     7.30398   5.57656   3.38619 
 O                     9.82406   5.75503   4.00965 
 H                     6.49145   5.35808   3.18878 
 C                     11.62573   3.48916   8.89704 
 C                     11.79932   4.84024   8.82488 
 H                     11.33383   5.39885   9.40527 
 C                     12.68416   5.39386   7.87153 
 C                     12.89537   6.78912   7.75072 
 H                     12.44306   7.37485   8.31385 
 C                     13.75627   7.27834   6.8166 
 H                     13.88194   8.19686   6.74412 
 C                     14.4509   6.41805   5.96681 
 H                     15.03555   6.76666   5.33217 
 C                     14.27951   5.07603   6.05935 
 H                     14.7544   4.51277   5.49326 
 C                     13.3881   4.52192   7.00497 
 C                     13.18617   3.12998   7.11608 
 H                     13.6492   2.55174   6.55344 
 C                     12.32488   2.62413   8.03524 
 H                     12.19641   1.70477   8.09524 
 O                     9.41348   3.68285   10.23518 
 O                     11.30497   2.65907   11.32709 
 O                     10.13132   1.50941   9.5703 
 S                     10.53712   2.7902    10.10845 
 O                     3.56023   2.18982   5.30029 
 H                     4.02235   2.14656   4.62045 
 H                     3.32543   3.02016   5.39792 
 O                     4.82587   4.92294   2.76192 
 H                     4.70523   4.29312   2.36858 
 H                     4.0966    5.3664    2.84361 
 
 NAtoms=     61 NQM=       61 NQMF=       0 NMMI=      0 NMMIF=      0
                NMic=       0 NMicF=      0.
                    Isotopes and Nuclear Properties:
 (Nuclear quadrupole moments (NQMom) in fm**2, nuclear magnetic moments (NMagM)
  in nuclear magnetons)

  Atom         1           2           3           4           5           6           7           8           9          10
 IAtWgt=          12           1          12           1          12           1          12           1          12          12
 AtmWgt=  12.0000000   1.0078250  12.0000000   1.0078250  12.0000000   1.0078250  12.0000000   1.0078250  12.0000000  12.0000000
 NucSpn=           0           1           0           1           0           1           0           1           0           0
 AtZEff=   0.0000000   0.0000000   0.0000000   0.0000000   0.0000000   0.0000000   0.0000000   0.0000000   0.0000000   0.0000000
 NQMom=    0.0000000   0.0000000   0.0000000   0.0000000   0.0000000   0.0000000   0.0000000   0.0000000   0.0000000   0.0000000
 NMagM=    0.0000000   2.7928460   0.0000000   2.7928460   0.0000000   2.7928460   0.0000000   2.7928460   0.0000000   0.0000000
 AtZNuc=   6.0000000   1.0000000   6.0000000   1.0000000   6.0000000   1.0000000   6.0000000   1.0000000   6.0000000   6.0000000

  Atom        11          12          13          14          15          16          17          18          19          20
 IAtWgt=           1          12           1          12          12           1          12          12          12           1
 AtmWgt=   1.0078250  12.0000000   1.0078250  12.0000000  12.0000000   1.0078250  12.0000000  12.0000000  12.0000000   1.0078250
 NucSpn=           1           0           1           0           0           1           0           0           0           1
 AtZEff=   0.0000000   0.0000000   0.0000000   0.0000000   0.0000000   0.0000000   0.0000000   0.0000000   0.0000000   0.0000000
 NQMom=    0.0000000   0.0000000   0.0000000   0.0000000   0.0000000   0.0000000   0.0000000   0.0000000   0.0000000   0.0000000
 NMagM=    2.7928460   0.0000000   2.7928460   0.0000000   0.0000000   2.7928460   0.0000000   0.0000000   0.0000000   2.7928460
 AtZNuc=   1.0000000   6.0000000   1.0000000   6.0000000   6.0000000   1.0000000   6.0000000   6.0000000   6.0000000   1.0000000

  Atom        21          22          23          24          25          26          27          28          29          30
 IAtWgt=          12           1          12           1           1           1          12           1           1           1
 AtmWgt=  12.0000000   1.0078250  12.0000000   1.0078250   1.0078250   1.0078250  12.0000000   1.0078250   1.0078250   1.0078250
 NucSpn=           0           1           0           1           1           1           0           1           1           1
 AtZEff=   0.0000000   0.0000000   0.0000000   0.0000000   0.0000000   0.0000000   0.0000000   0.0000000   0.0000000   0.0000000
 NQMom=    0.0000000   0.0000000   0.0000000   0.0000000   0.0000000   0.0000000   0.0000000   0.0000000   0.0000000   0.0000000
 NMagM=    0.0000000   2.7928460   0.0000000   2.7928460   2.7928460   2.7928460   0.0000000   2.7928460   2.7928460   2.7928460
 AtZNuc=   6.0000000   1.0000000   6.0000000   1.0000000   1.0000000   1.0000000   6.0000000   1.0000000   1.0000000   1.0000000

  Atom        31          32          33          34          35          36          37          38          39          40
 IAtWgt=          14          16          16           1          12          12           1          12          12           1
 AtmWgt=  14.0030740  15.9949146  15.9949146   1.0078250  12.0000000  12.0000000   1.0078250  12.0000000  12.0000000   1.0078250
 NucSpn=           2           0           0           1           0           0           1           0           0           1
 AtZEff=   0.0000000   0.0000000   0.0000000   0.0000000   0.0000000   0.0000000   0.0000000   0.0000000   0.0000000   0.0000000
 NQMom=    2.0440000   0.0000000   0.0000000   0.0000000   0.0000000   0.0000000   0.0000000   0.0000000   0.0000000   0.0000000
 NMagM=    0.4037610   0.0000000   0.0000000   2.7928460   0.0000000   0.0000000   2.7928460   0.0000000   0.0000000   2.7928460
 AtZNuc=   7.0000000   8.0000000   8.0000000   1.0000000   6.0000000   6.0000000   1.0000000   6.0000000   6.0000000   1.0000000

  Atom        41          42          43          44          45          46          47          48          49          50
 IAtWgt=          12           1          12           1          12           1          12          12           1          12
 AtmWgt=  12.0000000   1.0078250  12.0000000   1.0078250  12.0000000   1.0078250  12.0000000  12.0000000   1.0078250  12.0000000
 NucSpn=           0           1           0           1           0           1           0           0           1           0
 AtZEff=   0.0000000   0.0000000   0.0000000   0.0000000   0.0000000   0.0000000   0.0000000   0.0000000   0.0000000   0.0000000
 NQMom=    0.0000000   0.0000000   0.0000000   0.0000000   0.0000000   0.0000000   0.0000000   0.0000000   0.0000000   0.0000000
 NMagM=    0.0000000   2.7928460   0.0000000   2.7928460   0.0000000   2.7928460   0.0000000   0.0000000   2.7928460   0.0000000
 AtZNuc=   6.0000000   1.0000000   6.0000000   1.0000000   6.0000000   1.0000000   6.0000000   6.0000000   1.0000000   6.0000000

  Atom        51          52          53          54          55          56          57          58          59          60
 IAtWgt=           1          16          16          16          32          16           1           1          16           1
 AtmWgt=   1.0078250  15.9949146  15.9949146  15.9949146  31.9720718  15.9949146   1.0078250   1.0078250  15.9949146   1.0078250
 NucSpn=           1           0           0           0           0           0           1           1           0           1
 AtZEff=   0.0000000   0.0000000   0.0000000   0.0000000   0.0000000   0.0000000   0.0000000   0.0000000   0.0000000   0.0000000
 NQMom=    0.0000000   0.0000000   0.0000000   0.0000000   0.0000000   0.0000000   0.0000000   0.0000000   0.0000000   0.0000000
 NMagM=    2.7928460   0.0000000   0.0000000   0.0000000   0.0000000   0.0000000   2.7928460   2.7928460   0.0000000   2.7928460
 AtZNuc=   1.0000000   8.0000000   8.0000000   8.0000000  16.0000000   8.0000000   1.0000000   1.0000000   8.0000000   1.0000000

  Atom        61
 IAtWgt=           1
 AtmWgt=   1.0078250
 NucSpn=           1
 AtZEff=   0.0000000
 NQMom=    0.0000000
 NMagM=    2.7928460
 AtZNuc=   1.0000000
 Using perturbation frequencies:    0.000000    0.072000
 Leave Link  101 at Mon Jan 18 09:38:09 2021, MaxMem=  5368709120 cpu:         1.3
 (Enter /usr/local/bin/G09/G09d//g09/l106.exe)
 Differentiate once with respect to electric field.
 Nuclear step= 0.001000 Angstroms, electric field step= 0.000333 atomic units, NStep=1.
 Leave Link  106 at Mon Jan 18 09:38:09 2021, MaxMem=  5368709120 cpu:         0.0
 (Enter /usr/local/bin/G09/G09d//g09/l202.exe)
 Symmetry turned off by external request.
 Stoichiometry    C25H27NO7S
 Framework group  C1[X(C25H27NO7S)]
 Deg. of freedom   177
 Full point group                 C1      NOp   1
                          Input orientation:                          
 ---------------------------------------------------------------------
 Center     Atomic      Atomic             Coordinates (Angstroms)
 Number     Number       Type             X           Y           Z
 ---------------------------------------------------------------------
      1          6           0        4.981328    0.071552   10.993252
      2          1           0        5.237190   -0.321152   11.796859
      3          6           0        3.721703   -0.115648   10.538604
      4          1           0        3.115443   -0.622336   11.027606
      5          6           0        3.348624    0.456768    9.338043
      6          1           0        2.486605    0.336960    9.009138
      7          6           0        4.260512    1.200576    8.637825
      8          1           0        4.008560    1.584128    7.828959
      9          6           0        5.554116    1.395680    9.108582
     10          6           0        6.571241    2.139654    8.393078
     11          1           0        7.424292    2.184832    8.762582
     12          6           0        6.352534    2.762240    7.236733
     13          1           0        5.487633    2.713152    6.900267
     14          6           0        7.313628    3.510208    6.440030
     15          6           0        6.859881    4.162080    5.285657
     16          1           0        5.964942    4.086784    5.044526
     17          6           0        7.706735    4.910298    4.500788
     18          6           0        9.054207    5.005312    4.845144
     19          6           0        9.516534    4.350528    5.975355
     20          1           0       10.415511    4.407104    6.204980
     21          6           0        8.656140    3.617536    6.763017
     22          1           0        8.980968    3.189056    7.521586
     23          6           0        7.209337    0.995072   10.903999
     24          1           0        7.243593    0.545792   11.752479
     25          1           0        7.874112    0.624832   10.319170
     26          1           0        7.379610    1.931072   11.030893
     27          6           0       11.211774    5.821504    4.267876
     28          1           0       11.572521    4.932928    4.304859
     29          1           0       11.643778    6.314048    3.566836
     30          1           0       11.360398    6.262464    5.106986
     31          7           0        5.874834    0.814528   10.306020
     32          8           0        7.303978    5.576563    3.386193
     33          8           0        9.824057    5.755027    4.009650
     34          1           0        6.491451    5.358080    3.188784
     35          6           0       11.625734    3.489158    8.897037
     36          6           0       11.799321    4.840243    8.824879
     37          1           0       11.333829    5.398848    9.405271
     38          6           0       12.684164    5.393856    7.871531
     39          6           0       12.895367    6.789120    7.750719
     40          1           0       12.443058    7.374848    8.313851
     41          6           0       13.756273    7.278336    6.816602
     42          1           0       13.881943    8.196864    6.744115
     43          6           0       14.450900    6.418048    5.966807
     44          1           0       15.035548    6.766656    5.332174
     45          6           0       14.279507    5.076032    6.059348
     46          1           0       14.754396    4.512768    5.493257
     47          6           0       13.388097    4.521920    7.004971
     48          6           0       13.186172    3.129984    7.116085
     49          1           0       13.649195    2.551744    6.553445
     50          6           0       12.324882    2.624128    8.035244
     51          1           0       12.196412    1.704768    8.095239
     52          8           0        9.413483    3.682848   10.235176
     53          8           0       11.304968    2.659072   11.327088
     54          8           0       10.131317    1.509414    9.570298
     55         16           0       10.537122    2.790195   10.108447
     56          8           0        3.560232    2.189824    5.300286
     57          1           0        4.022351    2.146560    4.620450
     58          1           0        3.325427    3.020160    5.397922
     59          8           0        4.825874    4.922944    2.761915
     60          1           0        4.705227    4.293120    2.368577
     61          1           0        4.096599    5.366400    2.843607
 ---------------------------------------------------------------------
 Rotational constants (GHZ):      0.1356477      0.0772839      0.0516543
 Leave Link  202 at Mon Jan 18 09:38:09 2021, MaxMem=  5368709120 cpu:         0.0
 (Enter /usr/local/bin/G09/G09d//g09/l301.exe)
 Standard basis: 6-311+G(d) (5D, 7F)
 Ernie: Thresh=  0.10000D-02 Tol=  0.10000D-05 Strict=F.
   837 basis functions,  1373 primitive gaussians,   871 cartesian basis functions
   128 alpha electrons      128 beta electrons
       nuclear repulsion energy      3776.8843146181 Hartrees.
 IExCor= 4134 DFT=T Ex+Corr=M06L ExCW=0 ScaHFX=  0.000000
 ScaDFX=  1.000000  1.000000  1.000000  1.000000 ScalE2=  1.000000  1.000000
 IRadAn=      0 IRanWt=     -1 IRanGd=            0 ICorTp=0 IEmpDi=  4
 NAtoms=   61 NActive=   61 NUniq=   61 SFac= 1.00D+00 NAtFMM=   60 NAOKFM=T Big=T
 Integral buffers will be    131072 words long.
 Raffenetti 2 integral format.
 Two-electron integral symmetry is turned off.
 Leave Link  301 at Mon Jan 18 09:38:09 2021, MaxMem=  5368709120 cpu:         0.5
 (Enter /usr/local/bin/G09/G09d//g09/l302.exe)
 NPDir=0 NMtPBC=     1 NCelOv=     1 NCel=       1 NClECP=     1 NCelD=      1
         NCelK=      1 NCelE2=     1 NClLst=     1 CellRange=     0.0.
 One-electron integrals computed using PRISM.
 NBasis=   837 RedAO= T EigKep=  1.14D-06  NBF=   837
 NBsUse=   827 1.00D-06 EigRej=  8.99D-07 NBFU=   827
 Precomputing XC quadrature grid using
 IXCGrd= 4 IRadAn=           0 IRanWt=          -1 IRanGd=           0 AccXCQ= 0.00D+00.
 Generated NRdTot=       0 NPtTot=           0 NUsed=           0 NTot=          32
 NSgBfM=   853   853   853   853   853 MxSgAt=    61 MxSgA2=    61.
 Leave Link  302 at Mon Jan 18 09:38:12 2021, MaxMem=  5368709120 cpu:        16.1
 (Enter /usr/local/bin/G09/G09d//g09/l303.exe)
 DipDrv:  MaxL=1.
 Leave Link  303 at Mon Jan 18 09:38:12 2021, MaxMem=  5368709120 cpu:         1.4
 (Enter /usr/local/bin/G09/G09d//g09/l401.exe)
 ExpMin= 4.05D-02 ExpMax= 9.34D+04 ExpMxC= 3.17D+03 IAcc=2 IRadAn=         4 AccDes= 0.00D+00
 Harris functional with IExCor= 1009 and IRadAn=       4 diagonalized for initial guess.
 HarFok:  IExCor= 1009 AccDes= 0.00D+00 IRadAn=         4 IDoV= 1 UseB2=F ITyADJ=14
 ICtDFT=  3500011 ScaDFX=  1.000000  1.000000  1.000000  1.000000
 FoFCou: FMM=F IPFlag=           0 FMFlag=      100000 FMFlg1=        2001
         NFxFlg=           0 DoJE=T BraDBF=F KetDBF=T FulRan=T
         wScrn=  0.000000 ICntrl=     500 IOpCl=  0 I1Cent=   200000004 NGrid=           0
         NMat0=    1 NMatS0=      1 NMatT0=    0 NMatD0=    1 NMtDS0=    0 NMtDT0=    0
 Symmetry not used in FoFCou.
 Harris En= -1947.02327971623    
 JPrj=0 DoOrth=F DoCkMO=F.
 Leave Link  401 at Mon Jan 18 09:38:18 2021, MaxMem=  5368709120 cpu:        48.8
 (Enter /usr/local/bin/G09/G09d//g09/l502.exe)
 Closed shell SCF:
 Using DIIS extrapolation, IDIIS=  1040.
 Two-electron integral symmetry not used.
 IVT=     2306789 IEndB=     2306789 NGot=  5368709120 MDV=  5367178484
 LenX=  5367178484 LenY=  5366418972
 Requested convergence on RMS density matrix=1.00D-08 within 128 cycles.
 Requested convergence on MAX density matrix=1.00D-06.
 Requested convergence on             energy=1.00D-06.
 No special actions if energy rises.
 Fock matrices will be formed incrementally for  20 cycles.

 Cycle   1  Pass 1  IDiag  1:
 FoFJK:  IHMeth= 1 ICntrl=     500 DoSepK=F KAlg= 0 I1Cent=   0 FoldK=F
 IRaf= 800000000 NMat=   1 IRICut=       1 DoRegI=T DoRafI=F ISym2E= 0.
 FoFCou: FMM=T IPFlag=           0 FMFlag=      100000 FMFlg1=        2001
         NFxFlg=           0 DoJE=T BraDBF=F KetDBF=F FulRan=T
         wScrn=  0.000000 ICntrl=     500 IOpCl=  0 I1Cent=           0 NGrid=           0
         NMat0=    1 NMatS0=      1 NMatT0=    0 NMatD0=    1 NMtDS0=    0 NMtDT0=    0
 Symmetry not used in FoFCou.
 FMM levels:  10  Number of levels for PrismC:   9
 E= -1946.69757548751    
 DIIS: error= 4.79D-02 at cycle   1 NSaved=   1.
 NSaved= 1 IEnMin= 1 EnMin= -1946.69757548751     IErMin= 1 ErrMin= 4.79D-02
 ErrMax= 4.79D-02  0.00D+00 EMaxC= 1.00D-01 BMatC= 1.82D+00 BMatP= 1.82D+00
 IDIUse=3 WtCom= 5.21D-01 WtEn= 4.79D-01
 Coeff-Com:  0.100D+01
 Coeff-En:   0.100D+01
 Coeff:      0.100D+01
 Gap=     0.056 Goal=   None    Shift=    0.000
 GapD=    0.056 DampG=0.500 DampE=0.500 DampFc=0.2500 IDamp=-1.
 Damping current iteration by 2.50D-01
 RMSDP=1.02D-01 MaxDP=1.41D+01              OVMax= 9.35D-01

 Cycle   2  Pass 1  IDiag  1:
 RMSU=  2.17D-02    CP:  1.13D+00
 E= -1946.94024686652     Delta-E=       -0.242671379009 Rises=F Damp=T
 DIIS: error= 2.10D-02 at cycle   2 NSaved=   2.
 NSaved= 2 IEnMin= 2 EnMin= -1946.94024686652     IErMin= 2 ErrMin= 2.10D-02
 ErrMax= 2.10D-02  0.00D+00 EMaxC= 1.00D-01 BMatC= 4.83D-01 BMatP= 1.82D+00
 IDIUse=3 WtCom= 7.90D-01 WtEn= 2.10D-01
 Coeff-Com: -0.448D+00 0.145D+01
 Coeff-En:   0.263D+00 0.737D+00
 Coeff:     -0.298D+00 0.130D+01
 Gap=    -0.492 Goal=   None    Shift=    0.000
 RMSDP=5.48D-02 MaxDP=4.30D+00 DE=-2.43D-01 OVMax= 9.84D-01

 Cycle   3  Pass 1  IDiag  1:
 RMSU=  5.33D-02    CP:  1.14D+00  1.57D+00
 E= -1945.43429441633     Delta-E=        1.505952450187 Rises=F Damp=F
 DIIS: error= 4.31D-02 at cycle   3 NSaved=   3.
 NSaved= 3 IEnMin= 2 EnMin= -1946.94024686652     IErMin= 2 ErrMin= 2.10D-02
 ErrMax= 4.31D-02  0.00D+00 EMaxC= 1.00D-01 BMatC= 1.30D+00 BMatP= 4.83D-01
 IDIUse=2 WtCom= 0.00D+00 WtEn= 1.00D+00
 Coeff-En:   0.000D+00 0.757D+00 0.243D+00
 Coeff:      0.000D+00 0.757D+00 0.243D+00
 Gap=     0.387 Goal=   None    Shift=    0.000
 RMSDP=4.39D-02 MaxDP=3.30D+00 DE= 1.51D+00 OVMax= 5.64D-01

 Cycle   4  Pass 1  IDiag  1:
 RMSU=  1.79D-02    CP:  9.98D-01  1.20D+00  3.18D-01
 E= -1947.69265577316     Delta-E=       -2.258361356822 Rises=F Damp=F
 DIIS: error= 3.01D-02 at cycle   4 NSaved=   4.
 NSaved= 4 IEnMin= 4 EnMin= -1947.69265577316     IErMin= 2 ErrMin= 2.10D-02
 ErrMax= 3.01D-02  0.00D+00 EMaxC= 1.00D-01 BMatC= 2.15D-01 BMatP= 4.83D-01
 IDIUse=3 WtCom= 6.99D-01 WtEn= 3.01D-01
 Coeff-Com: -0.415D-01 0.410D+00 0.155D+00 0.476D+00
 Coeff-En:   0.761D-01 0.000D+00 0.000D+00 0.924D+00
 Coeff:     -0.612D-02 0.287D+00 0.108D+00 0.611D+00
 Gap=     0.109 Goal=   None    Shift=    0.000
 RMSDP=1.97D-02 MaxDP=2.20D+00 DE=-2.26D+00 OVMax= 4.63D-01

 Cycle   5  Pass 1  IDiag  1:
 RMSU=  1.56D-02    CP:  9.39D-01  7.55D-01  3.96D-01  1.01D+00
 E= -1947.72851329633     Delta-E=       -0.035857523178 Rises=F Damp=F
 DIIS: error= 2.06D-02 at cycle   5 NSaved=   5.
 NSaved= 5 IEnMin= 5 EnMin= -1947.72851329633     IErMin= 5 ErrMin= 2.06D-02
 ErrMax= 2.06D-02  0.00D+00 EMaxC= 1.00D-01 BMatC= 1.76D-01 BMatP= 2.15D-01
 IDIUse=3 WtCom= 7.94D-01 WtEn= 2.06D-01
 Coeff-Com:  0.223D-01 0.101D+00 0.308D-01 0.455D+00 0.391D+00
 Coeff-En:   0.000D+00 0.000D+00 0.000D+00 0.469D+00 0.531D+00
 Coeff:      0.177D-01 0.803D-01 0.245D-01 0.458D+00 0.420D+00
 Gap=     0.040 Goal=   None    Shift=    0.000
 RMSDP=8.56D-03 MaxDP=1.40D+00 DE=-3.59D-02 OVMax= 2.26D-01

 Cycle   6  Pass 1  IDiag  1:
 RMSU=  4.11D-03    CP:  9.26D-01  8.85D-01  3.51D-01  9.22D-01  6.02D-01
 E= -1947.91613869123     Delta-E=       -0.187625394895 Rises=F Damp=F
 DIIS: error= 6.40D-03 at cycle   6 NSaved=   6.
 NSaved= 6 IEnMin= 6 EnMin= -1947.91613869123     IErMin= 6 ErrMin= 6.40D-03
 ErrMax= 6.40D-03  0.00D+00 EMaxC= 1.00D-01 BMatC= 1.88D-02 BMatP= 1.76D-01
 IDIUse=3 WtCom= 9.36D-01 WtEn= 6.40D-02
 Coeff-Com:  0.108D-01 0.136D-01 0.241D-03 0.242D+00 0.274D+00 0.460D+00
 Coeff-En:   0.000D+00 0.000D+00 0.000D+00 0.000D+00 0.294D-01 0.971D+00
 Coeff:      0.101D-01 0.127D-01 0.226D-03 0.226D+00 0.258D+00 0.493D+00
 Gap=     0.021 Goal=   None    Shift=    0.000
 RMSDP=2.47D-03 MaxDP=3.07D-01 DE=-1.88D-01 OVMax= 6.03D-02

 Cycle   7  Pass 1  IDiag  1:
 RMSU=  1.86D-03    CP:  9.36D-01  9.13D-01  3.43D-01  9.33D-01  6.00D-01
                    CP:  7.49D-01
 E= -1947.93160545840     Delta-E=       -0.015466767170 Rises=F Damp=F
 DIIS: error= 3.05D-03 at cycle   7 NSaved=   7.
 NSaved= 7 IEnMin= 7 EnMin= -1947.93160545840     IErMin= 7 ErrMin= 3.05D-03
 ErrMax= 3.05D-03  0.00D+00 EMaxC= 1.00D-01 BMatC= 2.89D-03 BMatP= 1.88D-02
 IDIUse=3 WtCom= 9.69D-01 WtEn= 3.05D-02
 Coeff-Com: -0.437D-02 0.454D-02-0.859D-03 0.511D-01 0.608D-01 0.297D+00
 Coeff-Com:  0.592D+00
 Coeff-En:   0.000D+00 0.000D+00 0.000D+00 0.000D+00 0.000D+00 0.168D+00
 Coeff-En:   0.832D+00
 Coeff:     -0.424D-02 0.440D-02-0.833D-03 0.495D-01 0.590D-01 0.293D+00
 Coeff:      0.599D+00
 Gap=     0.021 Goal=   None    Shift=    0.000
 RMSDP=1.41D-03 MaxDP=1.21D-01 DE=-1.55D-02 OVMax= 2.54D-02

 Cycle   8  Pass 1  IDiag  1:
 RMSU=  1.25D-03    CP:  9.33D-01  9.23D-01  3.44D-01  9.38D-01  6.03D-01
                    CP:  8.27D-01  8.05D-01
 E= -1947.93403202054     Delta-E=       -0.002426562137 Rises=F Damp=F
 DIIS: error= 9.40D-04 at cycle   8 NSaved=   8.
 NSaved= 8 IEnMin= 8 EnMin= -1947.93403202054     IErMin= 8 ErrMin= 9.40D-04
 ErrMax= 9.40D-04  0.00D+00 EMaxC= 1.00D-01 BMatC= 4.87D-04 BMatP= 2.89D-03
 IDIUse=3 WtCom= 9.91D-01 WtEn= 9.40D-03
 Coeff-Com: -0.450D-02 0.376D-02-0.112D-02 0.116D-01 0.162D-01 0.147D+00
 Coeff-Com:  0.399D+00 0.428D+00
 Coeff-En:   0.000D+00 0.000D+00 0.000D+00 0.000D+00 0.000D+00 0.000D+00
 Coeff-En:   0.162D+00 0.838D+00
 Coeff:     -0.446D-02 0.372D-02-0.111D-02 0.115D-01 0.160D-01 0.145D+00
 Coeff:      0.397D+00 0.432D+00
 Gap=     0.021 Goal=   None    Shift=    0.000
 RMSDP=3.32D-04 MaxDP=5.76D-02 DE=-2.43D-03 OVMax= 9.54D-03

 Cycle   9  Pass 1  IDiag  1:
 RMSU=  2.45D-04    CP:  9.33D-01  9.25D-01  3.43D-01  9.36D-01  5.99D-01
                    CP:  8.35D-01  8.38D-01  8.42D-01
 E= -1947.93454818926     Delta-E=       -0.000516168723 Rises=F Damp=F
 DIIS: error= 2.65D-04 at cycle   9 NSaved=   9.
 NSaved= 9 IEnMin= 9 EnMin= -1947.93454818926     IErMin= 9 ErrMin= 2.65D-04
 ErrMax= 2.65D-04  0.00D+00 EMaxC= 1.00D-01 BMatC= 4.42D-05 BMatP= 4.87D-04
 IDIUse=3 WtCom= 9.97D-01 WtEn= 2.65D-03
 Coeff-Com: -0.371D-02 0.427D-02-0.490D-03-0.100D-02 0.266D-02 0.479D-01
 Coeff-Com:  0.167D+00 0.267D+00 0.517D+00
 Coeff-En:   0.000D+00 0.000D+00 0.000D+00 0.000D+00 0.000D+00 0.000D+00
 Coeff-En:   0.000D+00 0.404D-01 0.960D+00
 Coeff:     -0.370D-02 0.426D-02-0.489D-03-0.100D-02 0.265D-02 0.477D-01
 Coeff:      0.167D+00 0.266D+00 0.518D+00
 Gap=     0.021 Goal=   None    Shift=    0.000
 RMSDP=1.69D-04 MaxDP=1.57D-02 DE=-5.16D-04 OVMax= 3.10D-03

 Cycle  10  Pass 1  IDiag  1:
 RMSU=  1.01D-04    CP:  9.33D-01  9.26D-01  3.45D-01  9.37D-01  6.05D-01
                    CP:  8.37D-01  8.42D-01  8.32D-01  7.62D-01
 E= -1947.93458975567     Delta-E=       -0.000041566414 Rises=F Damp=F
 DIIS: error= 8.50D-05 at cycle  10 NSaved=  10.
 NSaved=10 IEnMin=10 EnMin= -1947.93458975567     IErMin=10 ErrMin= 8.50D-05
 ErrMax= 8.50D-05  0.00D+00 EMaxC= 1.00D-01 BMatC= 6.27D-06 BMatP= 4.42D-05
 IDIUse=1 WtCom= 1.00D+00 WtEn= 0.00D+00
 Coeff-Com: -0.210D-02 0.289D-02-0.409D-03-0.202D-02 0.183D-03 0.823D-02
 Coeff-Com:  0.480D-01 0.103D+00 0.314D+00 0.529D+00
 Coeff:     -0.210D-02 0.289D-02-0.409D-03-0.202D-02 0.183D-03 0.823D-02
 Coeff:      0.480D-01 0.103D+00 0.314D+00 0.529D+00
 Gap=     0.021 Goal=   None    Shift=    0.000
 RMSDP=6.01D-05 MaxDP=8.47D-03 DE=-4.16D-05 OVMax= 1.61D-03

 Cycle  11  Pass 1  IDiag  1:
 RMSU=  4.34D-05    CP:  9.33D-01  9.26D-01  3.45D-01  9.37D-01  6.06D-01
                    CP:  8.40D-01  8.38D-01  8.34D-01  8.60D-01  7.60D-01
 E= -1947.93459463288     Delta-E=       -0.000004877206 Rises=F Damp=F
 DIIS: error= 8.21D-05 at cycle  11 NSaved=  11.
 NSaved=11 IEnMin=11 EnMin= -1947.93459463288     IErMin=11 ErrMin= 8.21D-05
 ErrMax= 8.21D-05  0.00D+00 EMaxC= 1.00D-01 BMatC= 2.09D-06 BMatP= 6.27D-06
 IDIUse=1 WtCom= 1.00D+00 WtEn= 0.00D+00
 Coeff-Com: -0.110D-02 0.165D-02-0.442D-03-0.104D-02-0.771D-04-0.617D-03
 Coeff-Com:  0.109D-01 0.306D-01 0.131D+00 0.381D+00 0.448D+00
 Coeff:     -0.110D-02 0.165D-02-0.442D-03-0.104D-02-0.771D-04-0.617D-03
 Coeff:      0.109D-01 0.306D-01 0.131D+00 0.381D+00 0.448D+00
 Gap=     0.021 Goal=   None    Shift=    0.000
 RMSDP=5.10D-05 MaxDP=5.69D-03 DE=-4.88D-06 OVMax= 9.76D-04

 Cycle  12  Pass 1  IDiag  1:
 RMSU=  2.65D-05    CP:  9.33D-01  9.26D-01  3.45D-01  9.37D-01  6.07D-01
                    CP:  8.41D-01  8.50D-01  8.48D-01  8.27D-01  7.80D-01
                    CP:  8.12D-01
 E= -1947.93459691144     Delta-E=       -0.000002278560 Rises=F Damp=F
 DIIS: error= 3.50D-05 at cycle  12 NSaved=  12.
 NSaved=12 IEnMin=12 EnMin= -1947.93459691144     IErMin=12 ErrMin= 3.50D-05
 ErrMax= 3.50D-05  0.00D+00 EMaxC= 1.00D-01 BMatC= 3.56D-07 BMatP= 2.09D-06
 IDIUse=1 WtCom= 1.00D+00 WtEn= 0.00D+00
 Coeff-Com: -0.402D-03 0.710D-03-0.301D-03-0.200D-03-0.149D-03-0.295D-02
 Coeff-Com: -0.391D-02-0.172D-02 0.181D-01 0.135D+00 0.265D+00 0.591D+00
 Coeff:     -0.402D-03 0.710D-03-0.301D-03-0.200D-03-0.149D-03-0.295D-02
 Coeff:     -0.391D-02-0.172D-02 0.181D-01 0.135D+00 0.265D+00 0.591D+00
 Gap=     0.021 Goal=   None    Shift=    0.000
 RMSDP=2.11D-05 MaxDP=3.15D-03 DE=-2.28D-06 OVMax= 3.99D-04

 Cycle  13  Pass 1  IDiag  1:
 RMSU=  9.34D-06    CP:  9.33D-01  9.26D-01  3.45D-01  9.38D-01  6.07D-01
                    CP:  8.41D-01  8.53D-01  8.59D-01  8.33D-01  7.83D-01
                    CP:  7.75D-01  1.26D+00
 E= -1947.93459723145     Delta-E=       -0.000000320014 Rises=F Damp=F
 DIIS: error= 1.98D-05 at cycle  13 NSaved=  13.
 NSaved=13 IEnMin=13 EnMin= -1947.93459723145     IErMin=13 ErrMin= 1.98D-05
 ErrMax= 1.98D-05  0.00D+00 EMaxC= 1.00D-01 BMatC= 1.17D-07 BMatP= 3.56D-07
 IDIUse=1 WtCom= 1.00D+00 WtEn= 0.00D+00
 Coeff-Com: -0.469D-04 0.143D-03-0.142D-03 0.142D-03-0.139D-03-0.203D-02
 Coeff-Com: -0.504D-02-0.789D-02-0.206D-01-0.618D-02 0.647D-01 0.435D+00
 Coeff-Com:  0.542D+00
 Coeff:     -0.469D-04 0.143D-03-0.142D-03 0.142D-03-0.139D-03-0.203D-02
 Coeff:     -0.504D-02-0.789D-02-0.206D-01-0.618D-02 0.647D-01 0.435D+00
 Coeff:      0.542D+00
 Gap=     0.020 Goal=   None    Shift=    0.000
 RMSDP=1.43D-05 MaxDP=1.26D-03 DE=-3.20D-07 OVMax= 3.34D-04

 Cycle  14  Pass 1  IDiag  1:
 RMSU=  4.91D-06    CP:  9.33D-01  9.26D-01  3.45D-01  9.38D-01  6.08D-01
                    CP:  8.42D-01  8.55D-01  8.67D-01  8.45D-01  7.76D-01
                    CP:  8.10D-01  1.43D+00  1.08D+00
 E= -1947.93459735596     Delta-E=       -0.000000124511 Rises=F Damp=F
 DIIS: error= 1.07D-05 at cycle  14 NSaved=  14.
 NSaved=14 IEnMin=14 EnMin= -1947.93459735596     IErMin=14 ErrMin= 1.07D-05
 ErrMax= 1.07D-05  0.00D+00 EMaxC= 1.00D-01 BMatC= 2.71D-08 BMatP= 1.17D-07
 IDIUse=1 WtCom= 1.00D+00 WtEn= 0.00D+00
 Coeff-Com:  0.202D-04-0.143D-04-0.300D-04 0.113D-03-0.323D-04-0.497D-03
 Coeff-Com: -0.139D-02-0.218D-02-0.111D-01-0.298D-01-0.150D-01 0.102D+00
 Coeff-Com:  0.387D+00 0.570D+00
 Coeff:      0.202D-04-0.143D-04-0.300D-04 0.113D-03-0.323D-04-0.497D-03
 Coeff:     -0.139D-02-0.218D-02-0.111D-01-0.298D-01-0.150D-01 0.102D+00
 Coeff:      0.387D+00 0.570D+00
 Gap=     0.020 Goal=   None    Shift=    0.000
 RMSDP=5.32D-06 MaxDP=9.76D-04 DE=-1.25D-07 OVMax= 7.71D-05

 Cycle  15  Pass 1  IDiag  1:
 RMSU=  2.62D-06    CP:  9.33D-01  9.26D-01  3.45D-01  9.38D-01  6.08D-01
                    CP:  8.42D-01  8.55D-01  8.68D-01  8.41D-01  7.89D-01
                    CP:  8.38D-01  1.47D+00  1.23D+00  1.03D+00
 E= -1947.93459738320     Delta-E=       -0.000000027236 Rises=F Damp=F
 DIIS: error= 1.92D-06 at cycle  15 NSaved=  15.
 NSaved=15 IEnMin=15 EnMin= -1947.93459738320     IErMin=15 ErrMin= 1.92D-06
 ErrMax= 1.92D-06  0.00D+00 EMaxC= 1.00D-01 BMatC= 3.65D-09 BMatP= 2.71D-08
 IDIUse=1 WtCom= 1.00D+00 WtEn= 0.00D+00
 Coeff-Com:  0.118D-04-0.184D-04-0.396D-05 0.405D-04-0.541D-05-0.742D-04
 Coeff-Com: -0.996D-04 0.643D-04-0.273D-02-0.136D-01-0.103D-01 0.606D-02
 Coeff-Com:  0.175D+00 0.349D+00 0.497D+00
 Coeff:      0.118D-04-0.184D-04-0.396D-05 0.405D-04-0.541D-05-0.742D-04
 Coeff:     -0.996D-04 0.643D-04-0.273D-02-0.136D-01-0.103D-01 0.606D-02
 Coeff:      0.175D+00 0.349D+00 0.497D+00
 Gap=     0.020 Goal=   None    Shift=    0.000
 RMSDP=1.74D-06 MaxDP=3.32D-04 DE=-2.72D-08 OVMax= 2.56D-05

 Cycle  16  Pass 1  IDiag  1:
 RMSU=  1.02D-06    CP:  9.33D-01  9.26D-01  3.45D-01  9.38D-01  6.08D-01
                    CP:  8.41D-01  8.55D-01  8.69D-01  8.42D-01  7.89D-01
                    CP:  8.48D-01  1.48D+00  1.30D+00  1.08D+00  1.15D+00
 E= -1947.93459738625     Delta-E=       -0.000000003055 Rises=F Damp=F
 DIIS: error= 7.18D-07 at cycle  16 NSaved=  16.
 NSaved=16 IEnMin=16 EnMin= -1947.93459738625     IErMin=16 ErrMin= 7.18D-07
 ErrMax= 7.18D-07  0.00D+00 EMaxC= 1.00D-01 BMatC= 4.97D-10 BMatP= 3.65D-09
 IDIUse=1 WtCom= 1.00D+00 WtEn= 0.00D+00
 Coeff-Com:  0.155D-05-0.426D-05 0.209D-05 0.434D-05-0.437D-05 0.174D-04
 Coeff-Com:  0.135D-03 0.332D-03 0.513D-05-0.260D-02-0.128D-02-0.700D-02
 Coeff-Com:  0.487D-01 0.117D+00 0.296D+00 0.549D+00
 Coeff:      0.155D-05-0.426D-05 0.209D-05 0.434D-05-0.437D-05 0.174D-04
 Coeff:      0.135D-03 0.332D-03 0.513D-05-0.260D-02-0.128D-02-0.700D-02
 Coeff:      0.487D-01 0.117D+00 0.296D+00 0.549D+00
 Gap=     0.020 Goal=   None    Shift=    0.000
 RMSDP=9.53D-07 MaxDP=1.16D-04 DE=-3.05D-09 OVMax= 1.31D-05

 Cycle  17  Pass 1  IDiag  1:
 RMSU=  4.21D-07    CP:  9.33D-01  9.26D-01  3.45D-01  9.38D-01  6.08D-01
                    CP:  8.41D-01  8.55D-01  8.69D-01  8.42D-01  7.90D-01
                    CP:  8.50D-01  1.47D+00  1.31D+00  1.08D+00  1.23D+00
                    CP:  9.87D-01
 E= -1947.93459738692     Delta-E=       -0.000000000668 Rises=F Damp=F
 DIIS: error= 2.96D-07 at cycle  17 NSaved=  17.
 NSaved=17 IEnMin=17 EnMin= -1947.93459738692     IErMin=17 ErrMin= 2.96D-07
 ErrMax= 2.96D-07  0.00D+00 EMaxC= 1.00D-01 BMatC= 9.42D-11 BMatP= 4.97D-10
 IDIUse=1 WtCom= 1.00D+00 WtEn= 0.00D+00
 Coeff-Com: -0.366D-06-0.553D-07 0.142D-05-0.184D-05-0.183D-05 0.119D-04
 Coeff-Com:  0.599D-04 0.123D-03 0.234D-03 0.495D-03 0.117D-02-0.312D-02
 Coeff-Com:  0.627D-02 0.233D-01 0.116D+00 0.352D+00 0.504D+00
 Coeff:     -0.366D-06-0.553D-07 0.142D-05-0.184D-05-0.183D-05 0.119D-04
 Coeff:      0.599D-04 0.123D-03 0.234D-03 0.495D-03 0.117D-02-0.312D-02
 Coeff:      0.627D-02 0.233D-01 0.116D+00 0.352D+00 0.504D+00
 Gap=     0.020 Goal=   None    Shift=    0.000
 RMSDP=3.32D-07 MaxDP=5.86D-05 DE=-6.68D-10 OVMax= 4.84D-06

 Cycle  18  Pass 1  IDiag  1:
 RMSU=  1.66D-07    CP:  9.33D-01  9.26D-01  3.45D-01  9.38D-01  6.08D-01
                    CP:  8.41D-01  8.55D-01  8.69D-01  8.42D-01  7.90D-01
                    CP:  8.48D-01  1.47D+00  1.31D+00  1.09D+00  1.24D+00
                    CP:  1.05D+00  1.07D+00
 E= -1947.93459738663     Delta-E=        0.000000000296 Rises=F Damp=F
 DIIS: error= 1.20D-07 at cycle  18 NSaved=  18.
 NSaved=18 IEnMin=17 EnMin= -1947.93459738692     IErMin=18 ErrMin= 1.20D-07
 ErrMax= 1.20D-07  0.00D+00 EMaxC= 1.00D-01 BMatC= 1.50D-11 BMatP= 9.42D-11
 IDIUse=1 WtCom= 1.00D+00 WtEn= 0.00D+00
 Coeff-Com: -0.358D-06 0.444D-06 0.555D-06-0.178D-05-0.536D-06 0.411D-05
 Coeff-Com:  0.111D-04 0.668D-05 0.103D-03 0.667D-03 0.886D-03-0.199D-03
 Coeff-Com: -0.362D-02-0.395D-02 0.212D-01 0.120D+00 0.317D+00 0.548D+00
 Coeff:     -0.358D-06 0.444D-06 0.555D-06-0.178D-05-0.536D-06 0.411D-05
 Coeff:      0.111D-04 0.668D-05 0.103D-03 0.667D-03 0.886D-03-0.199D-03
 Coeff:     -0.362D-02-0.395D-02 0.212D-01 0.120D+00 0.317D+00 0.548D+00
 Gap=     0.020 Goal=   None    Shift=    0.000
 RMSDP=1.52D-07 MaxDP=2.03D-05 DE= 2.96D-10 OVMax= 1.84D-06

 Cycle  19  Pass 1  IDiag  1:
 RMSU=  5.54D-08    CP:  9.33D-01  9.26D-01  3.45D-01  9.38D-01  6.08D-01
                    CP:  8.41D-01  8.55D-01  8.69D-01  8.42D-01  7.91D-01
                    CP:  8.50D-01  1.47D+00  1.31D+00  1.10D+00  1.25D+00
                    CP:  1.03D+00  1.18D+00  9.90D-01
 E= -1947.93459738676     Delta-E=       -0.000000000136 Rises=F Damp=F
 DIIS: error= 5.42D-08 at cycle  19 NSaved=  19.
 NSaved=19 IEnMin=17 EnMin= -1947.93459738692     IErMin=19 ErrMin= 5.42D-08
 ErrMax= 5.42D-08  0.00D+00 EMaxC= 1.00D-01 BMatC= 3.37D-12 BMatP= 1.50D-11
 IDIUse=1 WtCom= 1.00D+00 WtEn= 0.00D+00
 Coeff-Com: -0.275D-07 0.226D-07 0.118D-06-0.673D-06 0.101D-06 0.109D-05
 Coeff-Com: -0.435D-05-0.243D-04 0.192D-05 0.285D-03 0.378D-03 0.399D-03
 Coeff-Com: -0.310D-02-0.626D-02-0.467D-02 0.209D-01 0.125D+00 0.367D+00
 Coeff-Com:  0.500D+00
 Coeff:     -0.275D-07 0.226D-07 0.118D-06-0.673D-06 0.101D-06 0.109D-05
 Coeff:     -0.435D-05-0.243D-04 0.192D-05 0.285D-03 0.378D-03 0.399D-03
 Coeff:     -0.310D-02-0.626D-02-0.467D-02 0.209D-01 0.125D+00 0.367D+00
 Coeff:      0.500D+00
 Gap=     0.020 Goal=   None    Shift=    0.000
 RMSDP=6.52D-08 MaxDP=1.07D-05 DE=-1.36D-10 OVMax= 7.98D-07

 Cycle  20  Pass 1  IDiag  1:
 RMSU=  3.36D-08    CP:  9.33D-01  9.26D-01  3.45D-01  9.38D-01  6.08D-01
                    CP:  8.41D-01  8.55D-01  8.69D-01  8.42D-01  7.91D-01
                    CP:  8.50D-01  1.47D+00  1.31D+00  1.10D+00  1.26D+00
                    CP:  1.06D+00  1.18D+00  1.06D+00  9.09D-01
 E= -1947.93459738706     Delta-E=       -0.000000000295 Rises=F Damp=F
 DIIS: error= 2.77D-08 at cycle  20 NSaved=  20.
 NSaved=20 IEnMin=20 EnMin= -1947.93459738706     IErMin=20 ErrMin= 2.77D-08
 ErrMax= 2.77D-08  0.00D+00 EMaxC= 1.00D-01 BMatC= 3.27D-13 BMatP= 3.37D-12
 IDIUse=1 WtCom= 1.00D+00 WtEn= 0.00D+00
 Coeff-Com:  0.104D-06-0.163D-06 0.968D-08-0.211D-06 0.166D-06-0.251D-06
 Coeff-Com: -0.503D-05-0.161D-04-0.782D-05 0.105D-03 0.151D-03 0.172D-03
 Coeff-Com: -0.147D-02-0.342D-02-0.467D-02 0.369D-03 0.422D-01 0.158D+00
 Coeff-Com:  0.297D+00 0.512D+00
 Coeff:      0.104D-06-0.163D-06 0.968D-08-0.211D-06 0.166D-06-0.251D-06
 Coeff:     -0.503D-05-0.161D-04-0.782D-05 0.105D-03 0.151D-03 0.172D-03
 Coeff:     -0.147D-02-0.342D-02-0.467D-02 0.369D-03 0.422D-01 0.158D+00
 Coeff:      0.297D+00 0.512D+00
 Gap=     0.020 Goal=   None    Shift=    0.000
 RMSDP=1.78D-08 MaxDP=1.79D-06 DE=-2.95D-10 OVMax= 2.94D-07

 Cycle  21  Pass 1  IDiag  1:
 Restarting incremental Fock formation.
 E= -1947.93459738626     Delta-E=        0.000000000800 Rises=F Damp=F
 DIIS: error= 3.37D-08 at cycle  21 NSaved=  20.
 NSaved=20 IEnMin=19 EnMin= -1947.93459738706     IErMin=19 ErrMin= 2.77D-08
 ErrMax= 3.37D-08  0.00D+00 EMaxC= 1.00D-01 BMatC= 3.98D-13 BMatP= 3.27D-13
 IDIUse=1 WtCom= 1.00D+00 WtEn= 0.00D+00
 Coeff-Com:  0.820D-07-0.127D-06-0.153D-06 0.128D-06-0.250D-06-0.396D-05
 Coeff-Com: -0.124D-04-0.675D-05 0.775D-04 0.117D-03 0.145D-03-0.109D-02
 Coeff-Com: -0.266D-02-0.391D-02-0.111D-02 0.296D-01 0.117D+00 0.234D+00
 Coeff-Com:  0.462D+00 0.165D+00
 Coeff:      0.820D-07-0.127D-06-0.153D-06 0.128D-06-0.250D-06-0.396D-05
 Coeff:     -0.124D-04-0.675D-05 0.775D-04 0.117D-03 0.145D-03-0.109D-02
 Coeff:     -0.266D-02-0.391D-02-0.111D-02 0.296D-01 0.117D+00 0.234D+00
 Coeff:      0.462D+00 0.165D+00
 Gap=     0.020 Goal=   None    Shift=    0.000
 RMSDP=3.85D-07 MaxDP=3.43D-05 DE= 8.00D-10 OVMax= 4.08D-08

 Cycle  22  Pass 1  IDiag  1:
 RMSU=  3.85D-07    CP:  1.00D+00
 E= -1947.93459738616     Delta-E=        0.000000000100 Rises=F Damp=F
 DIIS: error= 2.82D-08 at cycle  22 NSaved=  20.
 NSaved=20 IEnMin=18 EnMin= -1947.93459738706     IErMin=18 ErrMin= 2.77D-08
 ErrMax= 2.82D-08  0.00D+00 EMaxC= 1.00D-01 BMatC= 2.56D-13 BMatP= 3.27D-13
 IDIUse=1 WtCom= 1.00D+00 WtEn= 0.00D+00
 Large coefficients: NSaved= 20 BigCof=    0.00 CofMax=   10.00 Det=-3.92D-15
 Inversion failed.  Reducing to 19 matrices.
 Large coefficients: NSaved= 19 BigCof=    0.00 CofMax=   10.00 Det=-3.92D-15
 Inversion failed.  Reducing to 18 matrices.
 Large coefficients: NSaved= 18 BigCof=    0.00 CofMax=   10.00 Det=-3.93D-15
 Inversion failed.  Reducing to 17 matrices.
 Large coefficients: NSaved= 17 BigCof=    0.00 CofMax=   10.00 Det=-4.06D-15
 Inversion failed.  Reducing to 16 matrices.
 Large coefficients: NSaved= 16 BigCof=    0.00 CofMax=   10.00 Det=-4.06D-15
 Inversion failed.  Reducing to 15 matrices.
 Coeff-Com: -0.332D-05-0.211D-05 0.288D-04 0.620D-04 0.124D-03-0.260D-03
 Coeff-Com: -0.886D-03-0.115D-02 0.964D-03 0.196D-01 0.780D-01 0.162D+00
 Coeff-Com:  0.340D+00-0.723D+00 0.112D+01
 Coeff:     -0.332D-05-0.211D-05 0.288D-04 0.620D-04 0.124D-03-0.260D-03
 Coeff:     -0.886D-03-0.115D-02 0.964D-03 0.196D-01 0.780D-01 0.162D+00
 Coeff:      0.340D+00-0.723D+00 0.112D+01
 Gap=     0.020 Goal=   None    Shift=    0.000
 RMSDP=6.23D-07 MaxDP=5.65D-05 DE= 1.00D-10 OVMax= 8.69D-08

 Cycle  23  Pass 1  IDiag  1:
 RMSU=  8.02D-08    CP:  1.00D+00  2.60D+00
 E= -1947.93459738657     Delta-E=       -0.000000000408 Rises=F Damp=F
 DIIS: error= 2.03D-08 at cycle  23 NSaved=  16.
 NSaved=16 IEnMin=13 EnMin= -1947.93459738706     IErMin=16 ErrMin= 2.03D-08
 ErrMax= 2.03D-08  0.00D+00 EMaxC= 1.00D-01 BMatC= 1.87D-13 BMatP= 2.56D-13
 IDIUse=1 WtCom= 1.00D+00 WtEn= 0.00D+00
 Large coefficients: NSaved= 16 BigCof=    0.00 CofMax=   10.00 Det=-2.90D-15
 Inversion failed.  Reducing to 15 matrices.
 Coeff-Com:  0.576D-05 0.283D-04 0.103D-04-0.242D-04-0.446D-03-0.868D-03
 Coeff-Com: -0.144D-02-0.162D-02 0.311D-02 0.237D-01 0.489D-01 0.123D+00
 Coeff-Com: -0.211D+01 0.170D+01 0.122D+01
 Coeff:      0.576D-05 0.283D-04 0.103D-04-0.242D-04-0.446D-03-0.868D-03
 Coeff:     -0.144D-02-0.162D-02 0.311D-02 0.237D-01 0.489D-01 0.123D+00
 Coeff:     -0.211D+01 0.170D+01 0.122D+01
 Gap=     0.020 Goal=   None    Shift=    0.000
 RMSDP=1.16D-06 MaxDP=1.03D-04 DE=-4.08D-10 OVMax= 1.26D-07

 Cycle  24  Pass 1  IDiag  1:
 RMSU=  9.79D-07    CP:  1.00D+00  3.00D+00  3.00D+00
 E= -1947.93459738671     Delta-E=       -0.000000000147 Rises=F Damp=F
 DIIS: error= 6.56D-09 at cycle  24 NSaved=  16.
 NSaved=16 IEnMin=12 EnMin= -1947.93459738706     IErMin=16 ErrMin= 6.56D-09
 ErrMax= 6.56D-09  0.00D+00 EMaxC= 1.00D-01 BMatC= 2.99D-14 BMatP= 1.87D-13
 IDIUse=1 WtCom= 1.00D+00 WtEn= 0.00D+00
 Large coefficients: NSaved= 16 BigCof=    0.00 CofMax=   10.00 Det=-2.45D-15
 Inversion failed.  Reducing to 15 matrices.
 Coeff-Com:  0.136D-04 0.356D-05-0.868D-05-0.248D-03-0.463D-03-0.745D-03
 Coeff-Com: -0.838D-03 0.174D-02 0.130D-01 0.267D-01 0.742D-01-0.135D+01
 Coeff-Com:  0.915D+00 0.829D+00 0.496D+00
 Coeff:      0.136D-04 0.356D-05-0.868D-05-0.248D-03-0.463D-03-0.745D-03
 Coeff:     -0.838D-03 0.174D-02 0.130D-01 0.267D-01 0.742D-01-0.135D+01
 Coeff:      0.915D+00 0.829D+00 0.496D+00
 Gap=     0.020 Goal=   None    Shift=    0.000
 RMSDP=1.96D-07 MaxDP=1.38D-05 DE=-1.47D-10 OVMax= 6.15D-08

 Cycle  25  Pass 1  IDiag  1:
 RMSU=  6.22D-08    CP:  1.00D+00  3.00D+00  3.00D+00  1.19D+00
 E= -1947.93459738689     Delta-E=       -0.000000000177 Rises=F Damp=F
 DIIS: error= 3.81D-09 at cycle  25 NSaved=  16.
 NSaved=16 IEnMin=11 EnMin= -1947.93459738706     IErMin=16 ErrMin= 3.81D-09
 ErrMax= 3.81D-09  0.00D+00 EMaxC= 1.00D-01 BMatC= 8.44D-15 BMatP= 2.99D-14
 IDIUse=1 WtCom= 1.00D+00 WtEn= 0.00D+00
 Large coefficients: NSaved= 16 BigCof=    0.00 CofMax=   10.00 Det=-1.82D-15
 Inversion failed.  Reducing to 15 matrices.
 Coeff-Com: -0.852D-05-0.323D-05-0.992D-04-0.190D-03-0.406D-03-0.718D-03
 Coeff-Com:  0.601D-04 0.485D-02 0.109D-01 0.341D-01-0.808D+00 0.453D+00
 Coeff-Com:  0.522D+00 0.366D+00 0.419D+00
 Coeff:     -0.852D-05-0.323D-05-0.992D-04-0.190D-03-0.406D-03-0.718D-03
 Coeff:      0.601D-04 0.485D-02 0.109D-01 0.341D-01-0.808D+00 0.453D+00
 Coeff:      0.522D+00 0.366D+00 0.419D+00
 Gap=     0.020 Goal=   None    Shift=    0.000
 RMSDP=1.56D-07 MaxDP=1.18D-05 DE=-1.77D-10 OVMax= 4.16D-08

 Cycle  26  Pass 1  IDiag  1:
 RMSU=  8.48D-09    CP:  1.00D+00  3.00D+00  3.00D+00  1.34D+00  1.68D+00
 E= -1947.93459738688     Delta-E=        0.000000000006 Rises=F Damp=F
 DIIS: error= 1.72D-09 at cycle  26 NSaved=  16.
 NSaved=16 IEnMin=10 EnMin= -1947.93459738706     IErMin=16 ErrMin= 1.72D-09
 ErrMax= 1.72D-09  0.00D+00 EMaxC= 1.00D-01 BMatC= 1.84D-15 BMatP= 8.44D-15
 IDIUse=1 WtCom= 1.00D+00 WtEn= 0.00D+00
 Large coefficients: NSaved= 16 BigCof=    0.00 CofMax=   10.00 Det=-1.38D-15
 Inversion failed.  Reducing to 15 matrices.
 Coeff-Com: -0.561D-05-0.406D-04-0.481D-04 0.949D-05 0.216D-03 0.744D-03
 Coeff-Com:  0.262D-02 0.410D-02 0.121D-01-0.411D+00 0.177D+00 0.279D+00
 Coeff-Com:  0.229D+00 0.304D+00 0.403D+00
 Coeff:     -0.561D-05-0.406D-04-0.481D-04 0.949D-05 0.216D-03 0.744D-03
 Coeff:      0.262D-02 0.410D-02 0.121D-01-0.411D+00 0.177D+00 0.279D+00
 Coeff:      0.229D+00 0.304D+00 0.403D+00
 Gap=     0.020 Goal=   None    Shift=    0.000
 RMSDP=7.35D-08 MaxDP=5.21D-06 DE= 6.37D-12 OVMax= 2.53D-08

 Cycle  27  Pass 1  IDiag  1:
 RMSU=  4.12D-09    CP:  1.00D+00  3.00D+00  3.00D+00  1.41D+00  2.11D+00
                    CP:  2.38D+00
 E= -1947.93459738664     Delta-E=        0.000000000247 Rises=F Damp=F
 DIIS: error= 6.64D-10 at cycle  27 NSaved=  16.
 NSaved=16 IEnMin= 9 EnMin= -1947.93459738706     IErMin=16 ErrMin= 6.64D-10
 ErrMax= 6.64D-10  0.00D+00 EMaxC= 1.00D-01 BMatC= 2.23D-16 BMatP= 1.84D-15
 IDIUse=1 WtCom= 1.00D+00 WtEn= 0.00D+00
 Large coefficients: NSaved= 16 BigCof=    0.00 CofMax=   10.00 Det=-9.19D-16
 Inversion failed.  Reducing to 15 matrices.
 Coeff-Com: -0.253D-04-0.432D-04-0.579D-04-0.193D-04 0.255D-03 0.117D-02
 Coeff-Com:  0.146D-02 0.203D-02-0.178D+00 0.645D-01 0.123D+00 0.870D-01
 Coeff-Com:  0.118D+00 0.186D+00 0.594D+00
 Coeff:     -0.253D-04-0.432D-04-0.579D-04-0.193D-04 0.255D-03 0.117D-02
 Coeff:      0.146D-02 0.203D-02-0.178D+00 0.645D-01 0.123D+00 0.870D-01
 Coeff:      0.118D+00 0.186D+00 0.594D+00
 Gap=     0.020 Goal=   None    Shift=    0.000
 RMSDP=5.17D-08 MaxDP=4.27D-06 DE= 2.47D-10 OVMax= 8.79D-09

 Cycle  28  Pass 1  IDiag  1:
 RMSU=  1.39D-08    CP:  1.00D+00  3.00D+00  3.00D+00  1.46D+00  2.30D+00
                    CP:  3.00D+00  3.00D+00
 E= -1947.93459738685     Delta-E=       -0.000000000215 Rises=F Damp=F
 DIIS: error= 4.04D-10 at cycle  28 NSaved=  16.
 NSaved=16 IEnMin= 8 EnMin= -1947.93459738706     IErMin=16 ErrMin= 4.04D-10
 ErrMax= 4.04D-10  0.00D+00 EMaxC= 1.00D-01 BMatC= 8.69D-17 BMatP= 2.23D-16
 IDIUse=1 WtCom= 1.00D+00 WtEn= 0.00D+00
 Large coefficients: NSaved= 16 BigCof=    0.00 CofMax=   10.00 Det=-1.28D-16
 Inversion failed.  Reducing to 15 matrices.
 Coeff-Com:  0.558D-05 0.328D-04 0.108D-03 0.188D-03 0.211D-03-0.247D-03
 Coeff-Com: -0.203D-02-0.483D-01-0.678D-03 0.381D-01 0.306D-01 0.495D-01
 Coeff-Com:  0.108D+00 0.391D+00 0.433D+00
 Coeff:      0.558D-05 0.328D-04 0.108D-03 0.188D-03 0.211D-03-0.247D-03
 Coeff:     -0.203D-02-0.483D-01-0.678D-03 0.381D-01 0.306D-01 0.495D-01
 Coeff:      0.108D+00 0.391D+00 0.433D+00
 Gap=     0.020 Goal=   None    Shift=    0.000
 RMSDP=3.45D-08 MaxDP=3.06D-06 DE=-2.15D-10 OVMax= 3.12D-09

 Cycle  29  Pass 1  IDiag  1:
 RMSU=  9.72D-09    CP:  1.00D+00  3.00D+00  3.00D+00  1.48D+00  2.33D+00
                    CP:  3.00D+00  3.00D+00  2.35D+00
 E= -1947.93459738676     Delta-E=        0.000000000090 Rises=F Damp=F
 DIIS: error= 4.74D-10 at cycle  29 NSaved=  16.
 NSaved=16 IEnMin= 7 EnMin= -1947.93459738706     IErMin=15 ErrMin= 4.04D-10
 ErrMax= 4.74D-10  0.00D+00 EMaxC= 1.00D-01 BMatC= 7.63D-17 BMatP= 8.69D-17
 IDIUse=1 WtCom= 1.00D+00 WtEn= 0.00D+00
 Large coefficients: NSaved= 16 BigCof=    0.00 CofMax=   10.00 Det=-2.62D-17
 Inversion failed.  Reducing to 15 matrices.
 Coeff-Com:  0.203D-04 0.801D-04 0.147D-03 0.169D-03-0.158D-03-0.169D-02
 Coeff-Com: -0.400D-01-0.712D-02 0.347D-01 0.260D-01 0.425D-01 0.101D+00
 Coeff-Com:  0.436D+00 0.485D+00-0.767D-01
 Coeff:      0.203D-04 0.801D-04 0.147D-03 0.169D-03-0.158D-03-0.169D-02
 Coeff:     -0.400D-01-0.712D-02 0.347D-01 0.260D-01 0.425D-01 0.101D+00
 Coeff:      0.436D+00 0.485D+00-0.767D-01
 Gap=     0.020 Goal=   None    Shift=    0.000
 RMSDP=3.57D-09 MaxDP=3.29D-07 DE= 9.00D-11 OVMax= 8.81D-10

 SCF Done:  E(RM06L) =  -1947.93459739     A.U. after   29 cycles
            NFock= 29  Conv=0.36D-08     -V/T= 1.9988
 KE= 1.950252241017D+03 PE=-1.212676406508D+04 EE= 4.451692912058D+03
 Leave Link  502 at Mon Jan 18 09:51:42 2021, MaxMem=  5368709120 cpu:      6430.2
 (Enter /usr/local/bin/G09/G09d//g09/l801.exe)
 DoSCS=F DFT=T ScalE2(SS,OS)=  1.000000  1.000000
 Range of M.O.s used for correlation:     1   827
 NBasis=   837 NAE=   128 NBE=   128 NFC=     0 NFV=     0
 NROrb=    827 NOA=   128 NOB=   128 NVA=   699 NVB=   699

 **** Warning!!: The largest alpha MO coefficient is  0.17804710D+03


 **** Warning!!: The smallest alpha delta epsilon is  0.20419981D-01

 Leave Link  801 at Mon Jan 18 09:51:43 2021, MaxMem=  5368709120 cpu:         0.4
 (Enter /usr/local/bin/G09/G09d//g09/l1002.exe)
 Minotr:  Closed shell wavefunction.
          Direct CPHF calculation.
          Differentiating once with respect to electric field.
                with respect to dipole field.
          Electric field/nuclear overlap derivatives assumed to be zero.
          Requested convergence is 1.0D-08 RMS, and 1.0D-07 maximum.
          NewPWx=F KeepS1=T KeepF1=T KeepIn=T MapXYZ=F SortEE=F KeepMc=T.
          MDV=    5368707801 using IRadAn=       1.
 Generate precomputed XC quadrature information.
          Solving linear equations separately, MaxMat=      72.
          Doing perturbations at frequencies    0.000000    0.072000    0.144000
          There are     9 degrees of freedom in the 1st order CPHF.  IDoFFX=0 NUNeed=     9.
 LinEq1:  Iter=  0 NonCon=     9 RMS=1.01D+01 Max=3.89D+03 NDo=     9
 AX will form     9 AO Fock derivatives at one time.
 FoFJK:  IHMeth= 1 ICntrl=     500 DoSepK=F KAlg= 0 I1Cent=   0 FoldK=F
 IRaf= 800000000 NMat=   9 IRICut=       1 DoRegI=T DoRafI=F ISym2E= 0.
 FoFCou: FMM=T IPFlag=           0 FMFlag=      100000 FMFlg1=        2001
         NFxFlg=           0 DoJE=F BraDBF=F KetDBF=F FulRan=T
         wScrn=  0.000000 ICntrl=     500 IOpCl=  0 I1Cent=           0 NGrid=           0
         NMat0=    9 NMatS0=      9 NMatT0=    0 NMatD0=    9 NMtDS0=    0 NMtDT0=    0
 Symmetry not used in FoFCou.
 FMM levels:  10  Number of levels for PrismC:   9
 LinEq1:  Iter=  1 NonCon=     9 RMS=3.97D+01 Max=1.43D+04 NDo=     9
 LinEq1:  Iter=  2 NonCon=     9 RMS=1.53D+02 Max=4.87D+04 NDo=     9
 LinEq1:  Iter=  3 NonCon=     9 RMS=6.82D+02 Max=1.80D+05 NDo=     9
 LinEq1:  Iter=  4 NonCon=     9 RMS=8.71D+02 Max=2.14D+05 NDo=     9
 LinEq1:  Iter=  5 NonCon=     9 RMS=8.94D+02 Max=1.40D+05 NDo=     9
 LinEq1:  Iter=  6 NonCon=     9 RMS=2.27D+03 Max=5.05D+05 NDo=     9
 LinEq1:  Iter=  7 NonCon=     9 RMS=1.38D+03 Max=3.10D+05 NDo=     9
 LinEq1:  Iter=  8 NonCon=     9 RMS=2.09D+03 Max=3.92D+05 NDo=     9
 LinEq1:  Iter=  9 NonCon=     9 RMS=3.92D+03 Max=5.70D+05 NDo=     9
 LinEq1:  Iter= 10 NonCon=     9 RMS=3.61D+03 Max=4.96D+05 NDo=     9
 LinEq1:  Iter= 11 NonCon=     9 RMS=3.90D+03 Max=6.88D+05 NDo=     9
 LinEq1:  Iter= 12 NonCon=     9 RMS=4.39D+03 Max=7.74D+05 NDo=     9
 LinEq1:  Iter= 13 NonCon=     9 RMS=3.74D+03 Max=6.05D+05 NDo=     9
 LinEq1:  Iter= 14 NonCon=     9 RMS=4.20D+03 Max=5.90D+05 NDo=     9
 LinEq1:  Iter= 15 NonCon=     9 RMS=4.53D+03 Max=6.59D+05 NDo=     9
 LinEq1:  Iter= 16 NonCon=     9 RMS=4.10D+03 Max=5.29D+05 NDo=     9
 LinEq1:  Iter= 17 NonCon=     9 RMS=4.53D+03 Max=5.29D+05 NDo=     9
 LinEq1:  Iter= 18 NonCon=     9 RMS=3.96D+03 Max=5.83D+05 NDo=     9
 LinEq1:  Iter= 19 NonCon=     9 RMS=4.70D+03 Max=5.67D+05 NDo=     9
 LinEq1:  Iter= 20 NonCon=     9 RMS=4.14D+03 Max=5.73D+05 NDo=     9
 LinEq1:  Iter= 21 NonCon=     9 RMS=4.50D+03 Max=5.75D+05 NDo=     9
 LinEq1:  Iter= 22 NonCon=     9 RMS=3.30D+03 Max=3.91D+05 NDo=     9
 LinEq1:  Iter= 23 NonCon=     9 RMS=2.75D+03 Max=3.50D+05 NDo=     9
 LinEq1:  Iter= 24 NonCon=     9 RMS=2.34D+03 Max=2.79D+05 NDo=     9
 LinEq1:  Iter= 25 NonCon=     9 RMS=2.04D+03 Max=2.06D+05 NDo=     9
 LinEq1:  Iter= 26 NonCon=     9 RMS=2.00D+03 Max=3.17D+05 NDo=     9
 LinEq1:  Iter= 27 NonCon=     9 RMS=1.11D+03 Max=8.78D+04 NDo=     9
 LinEq1:  Iter= 28 NonCon=     9 RMS=7.51D+02 Max=8.94D+04 NDo=     9
 LinEq1:  Iter= 29 NonCon=     9 RMS=6.33D+02 Max=6.03D+04 NDo=     9
 LinEq1:  Iter= 30 NonCon=     9 RMS=4.67D+02 Max=5.87D+04 NDo=     9
 LinEq1:  Iter= 31 NonCon=     9 RMS=3.96D+02 Max=4.64D+04 NDo=     9
 LinEq1:  Iter= 32 NonCon=     9 RMS=2.55D+02 Max=1.97D+04 NDo=     9
 LinEq1:  Iter= 33 NonCon=     9 RMS=1.79D+02 Max=1.25D+04 NDo=     9
 LinEq1:  Iter= 34 NonCon=     9 RMS=1.66D+02 Max=1.06D+04 NDo=     9
 LinEq1:  Iter= 35 NonCon=     9 RMS=9.81D+01 Max=9.15D+03 NDo=     9
 LinEq1:  Iter= 36 NonCon=     9 RMS=6.87D+01 Max=6.56D+03 NDo=     9
 LinEq1:  Iter= 37 NonCon=     9 RMS=3.96D+01 Max=2.27D+03 NDo=     9
 LinEq1:  Iter= 38 NonCon=     9 RMS=2.47D+01 Max=1.08D+03 NDo=     9
 LinEq1:  Iter= 39 NonCon=     9 RMS=1.42D+01 Max=7.55D+02 NDo=     9
 LinEq1:  Iter= 40 NonCon=     9 RMS=7.44D+00 Max=3.91D+02 NDo=     9
 LinEq1:  Iter= 41 NonCon=     9 RMS=4.29D+00 Max=2.43D+02 NDo=     9
 LinEq1:  Iter= 42 NonCon=     9 RMS=2.62D+00 Max=1.36D+02 NDo=     9
 LinEq1:  Iter= 43 NonCon=     9 RMS=1.50D+00 Max=7.51D+01 NDo=     9
 LinEq1:  Iter= 44 NonCon=     9 RMS=9.12D-01 Max=5.06D+01 NDo=     9
 LinEq1:  Iter= 45 NonCon=     9 RMS=4.74D-01 Max=3.00D+01 NDo=     9
 LinEq1:  Iter= 46 NonCon=     9 RMS=2.61D-01 Max=1.36D+01 NDo=     9
 LinEq1:  Iter= 47 NonCon=     9 RMS=1.46D-01 Max=9.25D+00 NDo=     9
 LinEq1:  Iter= 48 NonCon=     7 RMS=8.86D-02 Max=6.00D+00 NDo=     9
 LinEq1:  Iter= 49 NonCon=     6 RMS=5.20D-02 Max=3.53D+00 NDo=     7
 LinEq1:  Iter= 50 NonCon=     6 RMS=2.72D-02 Max=2.00D+00 NDo=     6
 LinEq1:  Iter= 51 NonCon=     6 RMS=1.90D-02 Max=1.15D+00 NDo=     6
 LinEq1:  Iter= 52 NonCon=     6 RMS=9.63D-03 Max=5.75D-01 NDo=     6
 LinEq1:  Iter= 53 NonCon=     6 RMS=5.09D-03 Max=4.24D-01 NDo=     6
 LinEq1:  Iter= 54 NonCon=     6 RMS=3.16D-03 Max=2.56D-01 NDo=     6
 LinEq1:  Iter= 55 NonCon=     3 RMS=1.67D-03 Max=1.34D-01 NDo=     6
 LinEq1:  Iter= 56 NonCon=     3 RMS=9.33D-04 Max=6.48D-02 NDo=     3
 LinEq1:  Iter= 57 NonCon=     3 RMS=4.88D-04 Max=2.20D-02 NDo=     3
 LinEq1:  Iter= 58 NonCon=     3 RMS=2.62D-04 Max=1.36D-02 NDo=     3
 LinEq1:  Iter= 59 NonCon=     3 RMS=1.43D-04 Max=7.34D-03 NDo=     3
 LinEq1:  Iter= 60 NonCon=     3 RMS=7.94D-05 Max=4.59D-03 NDo=     3
 LinEq1:  Iter= 61 NonCon=     3 RMS=4.60D-05 Max=2.01D-03 NDo=     3
 LinEq1:  Iter= 62 NonCon=     3 RMS=2.20D-05 Max=1.21D-03 NDo=     3
 LinEq1:  Iter= 63 NonCon=     3 RMS=9.36D-06 Max=3.41D-04 NDo=     3
 LinEq1:  Iter= 64 NonCon=     3 RMS=3.63D-06 Max=1.32D-04 NDo=     3
 LinEq1:  Iter= 65 NonCon=     3 RMS=1.26D-06 Max=5.78D-05 NDo=     3
 LinEq1:  Iter= 66 NonCon=     3 RMS=4.64D-07 Max=3.75D-05 NDo=     3
 LinEq1:  Iter= 67 NonCon=     3 RMS=1.50D-07 Max=6.82D-06 NDo=     3
 LinEq1:  Iter= 68 NonCon=     3 RMS=5.00D-08 Max=1.90D-06 NDo=     3
 LinEq1:  Iter= 69 NonCon=     3 RMS=1.92D-08 Max=8.86D-07 NDo=     3
 LinEq1:  Iter= 70 NonCon=     3 RMS=6.74D-09 Max=6.17D-07 NDo=     3
 LinEq1:  Iter= 71 NonCon=     3 RMS=2.29D-09 Max=3.17D-07 NDo=     3
 LinEq1:  Iter= 72 NonCon=     2 RMS=1.41D-09 Max=2.23D-07 NDo=     3
 LinEq1:  Iter= 73 NonCon=     0 RMS=1.23D-09 Max=8.24D-08 NDo=     2
 Linear equations converged to 1.000D-08 1.000D-07 after    73 iterations.
 FullF1:  Do perturbations    1 to     9.
 SCF Polarizability for W=    0.000000:
                1             2             3 
      1  0.448694D+03
      2  0.142100D+03  0.361101D+03
      3 -0.101882D+03 -0.149574D+03  0.403634D+03
 Isotropic polarizability for W=    0.000000      404.48 Bohr**3.
 SCF Polarizability for W=    0.072000:
                1             2             3 
      1  0.599010D+03
      2  0.298946D+03  0.519870D+03
      3 -0.297248D+03 -0.324945D+03  0.600292D+03
 Isotropic polarizability for W=    0.072000      573.06 Bohr**3.
 SCF Polarizability for W=    0.144000:
                1             2             3 
      1  0.995352D+03
      2  0.545767D+03  0.762141D+03
      3 -0.667290D+03 -0.673906D+03  0.115081D+04
 Isotropic polarizability for W=    0.144000      969.44 Bohr**3.
 SCF Static Hyperpolarizability:
 K=  1 block:
                1 
      1 -0.237125D+05
 K=  2 block:
                1             2 
      1 -0.612306D+04
      2 -0.275123D+04 -0.202629D+04
 K=  3 block:
                1             2             3 
      1 -0.626126D+04
      2  0.661875D+03  0.177884D+04
      3 -0.614603D+04 -0.299455D+04  0.112695D+04
 SCF Beta(-W,W;0) for W=    0.072000:
 K=  1 block:
                1             2             3 
      1 -0.933881D+05
      2 -0.919221D+05 -0.926755D+05
      3  0.104692D+06  0.107324D+06 -0.125843D+06
 K=  2 block:
                1             2             3 
      1 -0.663773D+05
      2 -0.638422D+05 -0.623524D+05
      3  0.728820D+05  0.717587D+05 -0.831199D+05
 K=  3 block:
                1             2             3 
      1  0.566109D+05
      2  0.527403D+05  0.489252D+05
      3 -0.603750D+05 -0.558695D+05  0.635536D+05
 SCF Beta(W,W;-2W) for W=    0.072000:
 K=  1 block:
                1             2             3 
      1 -0.152431D+06
      2 -0.131558D+06 -0.110687D+06
      3  0.136083D+06  0.114335D+06 -0.121856D+06
 K=  2 block:
                1             2             3 
      1 -0.126242D+06
      2 -0.111472D+06 -0.938214D+05
      3  0.118652D+06  0.973126D+05 -0.100999D+06
 K=  3 block:
                1             2             3 
      1  0.154814D+06
      2  0.140330D+06  0.118629D+06
      3 -0.152555D+06 -0.124060D+06  0.128633D+06
 SCF Beta(-W,W;0) for W=    0.144000:
 K=  1 block:
                1             2             3 
      1  0.388127D+08
      2  0.265995D+08  0.178390D+08
      3 -0.388691D+08 -0.258647D+08  0.373167D+08
 K=  2 block:
                1             2             3 
      1  0.952896D+07
      2  0.624110D+07  0.400972D+07
      3 -0.907971D+07 -0.583391D+07  0.846766D+07
 K=  3 block:
                1             2             3 
      1  0.794005D+07
      2  0.599871D+07  0.435556D+07
      3 -0.884799D+07 -0.628080D+07  0.896580D+07
 End of Minotr F.D. properties on file   721 Mask=      31 NFrqRd=     2 NDeriv=     1 ND12= 1 LenFil=      94:
 Frequencies=    0.000000    0.072000
 Property number 1 -- Alpha(-w,w) frequency  1    0.000000:
                 1             2             3 
      1   0.448694D+03  0.142100D+03 -0.101882D+03
      2   0.142100D+03  0.361101D+03 -0.149574D+03
      3  -0.101882D+03 -0.149574D+03  0.403634D+03
 Property number 1 -- Alpha(-w,w) frequency  2    0.072000:
                 1             2             3 
      1   0.599010D+03  0.298946D+03 -0.297248D+03
      2   0.298946D+03  0.519870D+03 -0.324945D+03
      3  -0.297248D+03 -0.324945D+03  0.600292D+03
 Property number 5 -- Beta(-w,w,0) frequency  1    0.000000:
                 1 
      1  -0.237125D+05
      2  -0.612306D+04
      3  -0.275123D+04
      4  -0.626126D+04
      5   0.661875D+03
      6  -0.614603D+04
      7  -0.612306D+04
      8  -0.275123D+04
      9  -0.202629D+04
     10   0.661875D+03
     11   0.177884D+04
     12  -0.299455D+04
     13  -0.626126D+04
     14   0.661875D+03
     15   0.177884D+04
     16  -0.614603D+04
     17  -0.299455D+04
     18   0.112695D+04
 Property number 5 -- Beta(-w,w,0) frequency  2    0.072000:
                 1 
      1  -0.933881D+05
      2  -0.919221D+05
      3  -0.926755D+05
      4   0.104692D+06
      5   0.107324D+06
      6  -0.125843D+06
      7  -0.663773D+05
      8  -0.638422D+05
      9  -0.623524D+05
     10   0.728820D+05
     11   0.717587D+05
     12  -0.831199D+05
     13   0.566109D+05
     14   0.527403D+05
     15   0.489252D+05
     16  -0.603750D+05
     17  -0.558695D+05
     18   0.635536D+05
 Property number 6 -- Beta(w,w,-2w) frequency  1    0.000000:
                 1 
      1  -0.237125D+05
      2  -0.612306D+04
      3  -0.275123D+04
      4  -0.626126D+04
      5   0.661875D+03
      6  -0.614603D+04
      7  -0.612306D+04
      8  -0.275123D+04
      9  -0.202629D+04
     10   0.661875D+03
     11   0.177884D+04
     12  -0.299455D+04
     13  -0.626126D+04
     14   0.661875D+03
     15   0.177884D+04
     16  -0.614603D+04
     17  -0.299455D+04
     18   0.112695D+04
 Property number 6 -- Beta(w,w,-2w) frequency  2    0.072000:
                 1 
      1  -0.152431D+06
      2  -0.131558D+06
      3  -0.110687D+06
      4   0.136083D+06
      5   0.114335D+06
      6  -0.121856D+06
      7  -0.126242D+06
      8  -0.111472D+06
      9  -0.938214D+05
     10   0.118652D+06
     11   0.973126D+05
     12  -0.100999D+06
     13   0.154814D+06
     14   0.140330D+06
     15   0.118629D+06
     16  -0.152555D+06
     17  -0.124060D+06
     18   0.128633D+06
 End of Minotr F.D. properties file   722 does not exist.
 End of Minotr F.D. properties file   788 does not exist.
 Leave Link 1002 at Mon Jan 18 13:15:10 2021, MaxMem=  5368709120 cpu:     97685.8
 (Enter /usr/local/bin/G09/G09d//g09/l601.exe)
 Copying SCF densities to generalized density rwf, IOpCl= 0 IROHF=0.

 **********************************************************************

            Population analysis using the SCF density.

 **********************************************************************

 Alpha  occ. eigenvalues --  -88.64884 -19.00727 -19.00163 -18.99185 -18.97803
 Alpha  occ. eigenvalues --  -18.86467 -18.86350 -18.85764 -14.30152 -10.15812
 Alpha  occ. eigenvalues --  -10.13699 -10.11626 -10.11339 -10.09998 -10.09127
 Alpha  occ. eigenvalues --  -10.08959 -10.07078 -10.06836 -10.06616 -10.05813
 Alpha  occ. eigenvalues --  -10.05605 -10.04289 -10.03868 -10.03786 -10.03557
 Alpha  occ. eigenvalues --  -10.03375 -10.02963 -10.01865 -10.01835 -10.01702
 Alpha  occ. eigenvalues --  -10.01660 -10.01293 -10.01014 -10.00982  -7.98242
 Alpha  occ. eigenvalues --   -5.89192  -5.89155  -5.89125  -1.13723  -1.09074
 Alpha  occ. eigenvalues --   -1.05807  -1.03932  -1.02993  -1.01935  -0.89382
 Alpha  occ. eigenvalues --   -0.88846  -0.85661  -0.84502  -0.82891  -0.82775
 Alpha  occ. eigenvalues --   -0.78090  -0.78000  -0.74857  -0.73588  -0.73540
 Alpha  occ. eigenvalues --   -0.73360  -0.70292  -0.69681  -0.68684  -0.68543
 Alpha  occ. eigenvalues --   -0.65932  -0.64074  -0.62276  -0.61337  -0.59955
 Alpha  occ. eigenvalues --   -0.59359  -0.58075  -0.57198  -0.57008  -0.56535
 Alpha  occ. eigenvalues --   -0.54307  -0.52363  -0.52179  -0.51733  -0.50609
 Alpha  occ. eigenvalues --   -0.49132  -0.48820  -0.48754  -0.48054  -0.46954
 Alpha  occ. eigenvalues --   -0.46282  -0.45054  -0.44210  -0.43766  -0.43420
 Alpha  occ. eigenvalues --   -0.42807  -0.42441  -0.42037  -0.41803  -0.40738
 Alpha  occ. eigenvalues --   -0.40584  -0.40035  -0.40008  -0.39533  -0.38894
 Alpha  occ. eigenvalues --   -0.38823  -0.38363  -0.37812  -0.36779  -0.36612
 Alpha  occ. eigenvalues --   -0.35545  -0.35372  -0.35121  -0.34739  -0.34391
 Alpha  occ. eigenvalues --   -0.33981  -0.33603  -0.32677  -0.32388  -0.32132
 Alpha  occ. eigenvalues --   -0.31587  -0.30893  -0.30262  -0.29999  -0.28919
 Alpha  occ. eigenvalues --   -0.28850  -0.25971  -0.24875  -0.23907  -0.23260
 Alpha  occ. eigenvalues --   -0.22420  -0.21974  -0.20260  -0.19668  -0.19144
 Alpha  occ. eigenvalues --   -0.19063  -0.17308  -0.14742
 Alpha virt. eigenvalues --   -0.12700  -0.10654  -0.04677  -0.03881  -0.03703
 Alpha virt. eigenvalues --   -0.02882  -0.01755  -0.01735  -0.00083   0.00870
 Alpha virt. eigenvalues --    0.00915   0.01344   0.01665   0.02117   0.02448
 Alpha virt. eigenvalues --    0.02725   0.03088   0.03092   0.03520   0.03739
 Alpha virt. eigenvalues --    0.05060   0.05141   0.05530   0.05839   0.06166
 Alpha virt. eigenvalues --    0.06432   0.06633   0.06946   0.07172   0.07223
 Alpha virt. eigenvalues --    0.07365   0.07516   0.07898   0.08108   0.08580
 Alpha virt. eigenvalues --    0.08865   0.08957   0.09508   0.09550   0.09706
 Alpha virt. eigenvalues --    0.10256   0.10621   0.10910   0.11192   0.11345
 Alpha virt. eigenvalues --    0.11571   0.11656   0.12023   0.12300   0.12581
 Alpha virt. eigenvalues --    0.13124   0.13559   0.13653   0.13669   0.14134
 Alpha virt. eigenvalues --    0.14287   0.14369   0.14641   0.14910   0.15057
 Alpha virt. eigenvalues --    0.15109   0.15371   0.15615   0.15760   0.16028
 Alpha virt. eigenvalues --    0.16222   0.16284   0.16703   0.16836   0.17009
 Alpha virt. eigenvalues --    0.17311   0.17591   0.17825   0.18065   0.18202
 Alpha virt. eigenvalues --    0.18329   0.18548   0.18852   0.19051   0.19150
 Alpha virt. eigenvalues --    0.19303   0.19453   0.19673   0.19828   0.20163
 Alpha virt. eigenvalues --    0.20322   0.20429   0.20655   0.20730   0.20782
 Alpha virt. eigenvalues --    0.20995   0.21332   0.21538   0.21793   0.21928
 Alpha virt. eigenvalues --    0.22001   0.22206   0.22469   0.22504   0.22872
 Alpha virt. eigenvalues --    0.23083   0.23262   0.23403   0.23671   0.23852
 Alpha virt. eigenvalues --    0.24109   0.24166   0.24392   0.24615   0.24745
 Alpha virt. eigenvalues --    0.24979   0.25296   0.25461   0.25688   0.25911
 Alpha virt. eigenvalues --    0.26157   0.26253   0.26444   0.26823   0.26836
 Alpha virt. eigenvalues --    0.26996   0.27293   0.27433   0.27764   0.28070
 Alpha virt. eigenvalues --    0.28403   0.28566   0.28945   0.29225   0.29329
 Alpha virt. eigenvalues --    0.29489   0.29737   0.29932   0.30094   0.30384
 Alpha virt. eigenvalues --    0.30804   0.31005   0.31343   0.31395   0.31488
 Alpha virt. eigenvalues --    0.31951   0.32139   0.32400   0.32557   0.32912
 Alpha virt. eigenvalues --    0.33053   0.33188   0.33349   0.33618   0.33982
 Alpha virt. eigenvalues --    0.34465   0.34560   0.34865   0.35073   0.35240
 Alpha virt. eigenvalues --    0.35572   0.35802   0.36328   0.36712   0.37016
 Alpha virt. eigenvalues --    0.37251   0.37712   0.37930   0.38148   0.38302
 Alpha virt. eigenvalues --    0.38930   0.39165   0.39573   0.40155   0.40342
 Alpha virt. eigenvalues --    0.40805   0.40899   0.41296   0.41364   0.41509
 Alpha virt. eigenvalues --    0.42413   0.42440   0.42950   0.43688   0.44177
 Alpha virt. eigenvalues --    0.44271   0.44640   0.45302   0.45694   0.46350
 Alpha virt. eigenvalues --    0.46755   0.46875   0.47350   0.47793   0.48184
 Alpha virt. eigenvalues --    0.49173   0.49763   0.50034   0.50409   0.50681
 Alpha virt. eigenvalues --    0.51179   0.51320   0.51461   0.51838   0.51908
 Alpha virt. eigenvalues --    0.52418   0.52834   0.53298   0.53451   0.53799
 Alpha virt. eigenvalues --    0.54295   0.54551   0.54872   0.55084   0.55488
 Alpha virt. eigenvalues --    0.56026   0.56593   0.56995   0.57056   0.57552
 Alpha virt. eigenvalues --    0.57924   0.58569   0.58628   0.59253   0.59771
 Alpha virt. eigenvalues --    0.59916   0.60573   0.60935   0.61185   0.61432
 Alpha virt. eigenvalues --    0.61870   0.62224   0.62418   0.62678   0.63126
 Alpha virt. eigenvalues --    0.63681   0.64296   0.64472   0.64863   0.65178
 Alpha virt. eigenvalues --    0.65445   0.65833   0.66623   0.66716   0.67333
 Alpha virt. eigenvalues --    0.67646   0.67749   0.68557   0.68716   0.68938
 Alpha virt. eigenvalues --    0.69589   0.69705   0.70025   0.70473   0.70912
 Alpha virt. eigenvalues --    0.71388   0.71548   0.71993   0.72689   0.73044
 Alpha virt. eigenvalues --    0.73550   0.73903   0.74056   0.74312   0.74561
 Alpha virt. eigenvalues --    0.74975   0.75533   0.75830   0.76164   0.76464
 Alpha virt. eigenvalues --    0.76998   0.77647   0.77947   0.78479   0.79090
 Alpha virt. eigenvalues --    0.79247   0.79957   0.80695   0.80793   0.80978
 Alpha virt. eigenvalues --    0.81107   0.81958   0.82861   0.82979   0.83814
 Alpha virt. eigenvalues --    0.83962   0.84248   0.84997   0.86127   0.86570
 Alpha virt. eigenvalues --    0.87518   0.87776   0.87899   0.88596   0.89721
 Alpha virt. eigenvalues --    0.89780   0.90085   0.90733   0.91371   0.91623
 Alpha virt. eigenvalues --    0.92480   0.92767   0.93089   0.93628   0.94559
 Alpha virt. eigenvalues --    0.94843   0.94901   0.95514   0.95859   0.96810
 Alpha virt. eigenvalues --    0.96832   0.97252   0.97379   0.98881   0.99121
 Alpha virt. eigenvalues --    0.99667   0.99880   1.00625   1.00691   1.01265
 Alpha virt. eigenvalues --    1.01539   1.02505   1.02734   1.02998   1.03596
 Alpha virt. eigenvalues --    1.04257   1.04406   1.04834   1.05013   1.05383
 Alpha virt. eigenvalues --    1.06293   1.06759   1.07127   1.07946   1.08418
 Alpha virt. eigenvalues --    1.08451   1.09728   1.09940   1.10236   1.10725
 Alpha virt. eigenvalues --    1.12297   1.12405   1.12825   1.13094   1.13628
 Alpha virt. eigenvalues --    1.14009   1.14532   1.14929   1.15387   1.15962
 Alpha virt. eigenvalues --    1.16721   1.17687   1.18047   1.18561   1.19334
 Alpha virt. eigenvalues --    1.19722   1.20516   1.20708   1.21438   1.21744
 Alpha virt. eigenvalues --    1.23059   1.23280   1.23812   1.24453   1.25276
 Alpha virt. eigenvalues --    1.25484   1.25792   1.26008   1.27297   1.27860
 Alpha virt. eigenvalues --    1.28444   1.29649   1.30329   1.31867   1.33177
 Alpha virt. eigenvalues --    1.33552   1.34373   1.36643   1.36761   1.38051
 Alpha virt. eigenvalues --    1.39053   1.39826   1.40411   1.40652   1.42315
 Alpha virt. eigenvalues --    1.42631   1.44701   1.45300   1.46455   1.47417
 Alpha virt. eigenvalues --    1.48892   1.49592   1.50422   1.50988   1.52702
 Alpha virt. eigenvalues --    1.52821   1.53190   1.53631   1.54346   1.55651
 Alpha virt. eigenvalues --    1.55812   1.56446   1.56661   1.58364   1.58555
 Alpha virt. eigenvalues --    1.59949   1.60352   1.61300   1.62127   1.62620
 Alpha virt. eigenvalues --    1.63285   1.63959   1.65573   1.66027   1.66662
 Alpha virt. eigenvalues --    1.68243   1.69168   1.69507   1.71146   1.71851
 Alpha virt. eigenvalues --    1.72552   1.73861   1.73941   1.74640   1.77087
 Alpha virt. eigenvalues --    1.78132   1.78883   1.80199   1.80479   1.81607
 Alpha virt. eigenvalues --    1.82807   1.83471   1.85074   1.85600   1.85687
 Alpha virt. eigenvalues --    1.86106   1.87253   1.87548   1.88155   1.89356
 Alpha virt. eigenvalues --    1.89532   1.90661   1.90884   1.91429   1.92716
 Alpha virt. eigenvalues --    1.93195   1.93365   1.94209   1.95215   1.95595
 Alpha virt. eigenvalues --    1.95986   1.97166   1.97826   1.99186   2.00129
 Alpha virt. eigenvalues --    2.00718   2.01121   2.02059   2.02940   2.04131
 Alpha virt. eigenvalues --    2.04801   2.05960   2.06658   2.07353   2.07566
 Alpha virt. eigenvalues --    2.09358   2.11438   2.12187   2.13187   2.15102
 Alpha virt. eigenvalues --    2.15854   2.16424   2.17952   2.18630   2.20962
 Alpha virt. eigenvalues --    2.23882   2.24556   2.25989   2.28081   2.28639
 Alpha virt. eigenvalues --    2.29426   2.30293   2.30921   2.31633   2.32694
 Alpha virt. eigenvalues --    2.33889   2.35573   2.36147   2.36185   2.36422
 Alpha virt. eigenvalues --    2.36985   2.39121   2.40799   2.41080   2.41631
 Alpha virt. eigenvalues --    2.43164   2.43796   2.44716   2.45279   2.46584
 Alpha virt. eigenvalues --    2.47972   2.49146   2.50054   2.51235   2.52817
 Alpha virt. eigenvalues --    2.53340   2.54079   2.56621   2.57664   2.58861
 Alpha virt. eigenvalues --    2.59149   2.61975   2.62382   2.64259   2.64588
 Alpha virt. eigenvalues --    2.66431   2.68321   2.68872   2.69553   2.70076
 Alpha virt. eigenvalues --    2.70960   2.72042   2.72438   2.72961   2.75024
 Alpha virt. eigenvalues --    2.75243   2.76640   2.78473   2.80584   2.80753
 Alpha virt. eigenvalues --    2.81218   2.82507   2.85008   2.85460   2.85873
 Alpha virt. eigenvalues --    2.86784   2.87290   2.88189   2.88994   2.89827
 Alpha virt. eigenvalues --    2.90237   2.90808   2.91531   2.92506   2.93427
 Alpha virt. eigenvalues --    2.93657   2.94272   2.94974   2.95850   2.96140
 Alpha virt. eigenvalues --    2.96674   2.97156   2.98617   2.98846   2.99686
 Alpha virt. eigenvalues --    3.00619   3.01565   3.02210   3.02875   3.04071
 Alpha virt. eigenvalues --    3.04194   3.05648   3.06042   3.06577   3.10134
 Alpha virt. eigenvalues --    3.10876   3.12454   3.16035   3.16744   3.17860
 Alpha virt. eigenvalues --    3.18684   3.19507   3.20584   3.24343   3.25619
 Alpha virt. eigenvalues --    3.25873   3.28375   3.28890   3.29981   3.30731
 Alpha virt. eigenvalues --    3.30760   3.31294   3.32831   3.33220   3.34283
 Alpha virt. eigenvalues --    3.36213   3.37117   3.37327   3.37793   3.39747
 Alpha virt. eigenvalues --    3.40844   3.41264   3.43177   3.43990   3.44791
 Alpha virt. eigenvalues --    3.45360   3.46157   3.49048   3.49629   3.50748
 Alpha virt. eigenvalues --    3.51723   3.53345   3.53919   3.54739   3.54990
 Alpha virt. eigenvalues --    3.56587   3.58261   3.61910   3.64074   3.66129
 Alpha virt. eigenvalues --    3.67410   3.72190   3.73844   3.75321   3.75900
 Alpha virt. eigenvalues --    3.77290   3.77945   3.79398   3.79654   3.80244
 Alpha virt. eigenvalues --    3.81225   3.83127   3.83648   3.86283   3.89278
 Alpha virt. eigenvalues --    3.90319   3.92874   4.00887   4.04455   4.08706
 Alpha virt. eigenvalues --    4.10886   4.15652   4.17861   4.24156   4.26829
 Alpha virt. eigenvalues --    4.27241   4.29263   4.45021   4.46924   4.73102
 Alpha virt. eigenvalues --    4.87954   4.88747   4.91232   4.92489   5.05676
 Alpha virt. eigenvalues --    5.08321   5.10990   5.18243   5.21454   5.22118
 Alpha virt. eigenvalues --    5.24239   5.27520   5.29610   5.30913   5.33042
 Alpha virt. eigenvalues --    5.36614   5.37509   5.38813   5.39352   5.40145
 Alpha virt. eigenvalues --    5.46337   5.52960   5.56485   5.57600   5.77839
 Alpha virt. eigenvalues --    5.95543   8.45872  17.71713  17.78004  17.79145
 Alpha virt. eigenvalues --   23.55312  23.57300  23.63077  23.77007  23.77152
 Alpha virt. eigenvalues --   23.83605  23.88728  23.94917  24.03090  24.03910
 Alpha virt. eigenvalues --   24.05826  24.06679  24.08401  24.16688  24.19341
 Alpha virt. eigenvalues --   24.19893  24.20196  24.23870  24.27885  24.28022
 Alpha virt. eigenvalues --   24.29651  24.32647  24.35798  24.36290  24.36612
 Alpha virt. eigenvalues --   35.73195  50.08855  50.10133  50.20039  50.26253
 Alpha virt. eigenvalues --   50.28568  50.28873  50.35492 190.21423
 Electronic spatial extent (au):  <R**2>=         155308.7358
 Charge=              0.0000 electrons
 Dipole moment (field-independent basis, Debye):
    X=            -16.8395    Y=             -2.8064    Z=             -7.8215  Tot=             18.7782
 Quadrupole moment (field-independent basis, Debye-Ang):
   XX=           -437.6318   YY=           -206.9658   ZZ=           -312.9601
   XY=            -56.8497   XZ=           -218.6665   YZ=            -63.3029
 Traceless Quadrupole moment (field-independent basis, Debye-Ang):
   XX=           -118.4459   YY=            112.2201   ZZ=              6.2258
   XY=            -56.8497   XZ=           -218.6665   YZ=            -63.3029
 Octapole moment (field-independent basis, Debye-Ang**2):
  XXX=          -8111.8461  YYY=          -2101.5290  ZZZ=          -5874.1985  XYY=          -1947.5225
  XXY=          -1302.5369  XXZ=          -4463.0442  XZZ=          -4374.5405  YZZ=          -1556.8091
  YYZ=          -1679.7304  XYZ=           -753.4494
 Hexadecapole moment (field-independent basis, Debye-Ang**3):
 XXXX=        -140266.1677 YYYY=         -19275.9980 ZZZZ=         -90528.3816 XXXY=         -27041.4471
 XXXZ=         -75734.6158 YYYX=         -21474.3679 YYYZ=         -14222.8787 ZZZX=         -69678.0326
 ZZZY=         -24353.8614 XXYY=         -22723.3682 XXZZ=         -65628.4543 YYZZ=         -18261.7381
 XXYZ=         -12843.9531 YYXZ=         -15419.0025 ZZXY=         -16460.0792
 N-N= 3.776884314618D+03 E-N=-1.212676406508D+04  KE= 1.950252241017D+03
  Exact polarizability: 448.694 142.100 361.101-101.882-149.574 403.634
 Approx polarizability: 817.271 302.094 786.223-292.267-371.506 866.718
 No NMR shielding tensors so no spin-rotation constants.
 Leave Link  601 at Mon Jan 18 13:15:12 2021, MaxMem=  5368709120 cpu:        10.2
[...]
     6         -2.20935093         -6.48383491        -17.98941547
     6         -1.70912958         -6.32238918        -20.57075751
     6         -3.12966665         -4.70268757        -22.05891222
     1         -2.79452696         -4.58233780        -23.77906108
     6         -5.03627265         -3.27075415        -21.01383719
     1         -5.97980054         -2.20150327        -22.04036979
     6        -12.76672816          2.51765399        -21.08084606
     1        -14.09627395          3.59903262        -21.67986376
     1        -11.16640545          3.15996386        -21.64250207
     1        -13.01001495          0.84303923        -21.73361684
     6          0.88573569         -7.61772963        -24.00315675
     1          1.27662895         -5.89009805        -24.39264948
     1          2.33858319         -8.65457459        -24.32254592
     1         -0.49366834         -8.17433374        -25.04002847
     7        -12.81126704          2.44597954        -18.29769631
     8         -0.76866649         -8.10982969        -16.61774362
     8          0.20157756         -7.81512304        -21.42946794
     1         -1.05883116         -7.90448910        -15.02372767
     6         -6.20379456         -1.89836676        -27.68964960
     6         -6.18126812         -4.40063367        -28.30858650
     1         -7.64495311         -5.35891273        -28.13434557
     6         -3.94184267         -5.54135589        -29.21402010
     6         -3.81403574         -8.13280801        -29.87088267
     1         -5.24255145         -9.14405148        -29.71305638
     6         -1.61524053         -9.15260483        -30.73270224
     1         -1.55396394        -10.85900587        -31.14801763
     6          0.54610212         -7.66833340        -30.99799019
     1          2.03684520         -8.39142193        -31.58767387
     6          0.48920498         -5.17678544        -30.40137628
     1          1.93716460         -4.20412205        -30.60148236
     6         -1.74240492         -4.03849089        -29.47859269
     6         -1.84679309         -1.45430869        -28.83075931
     1         -0.41169753         -0.45493788        -29.00924382
     6         -4.01757872         -0.40785567        -27.95181594
     1         -4.05982464          1.29606428        -27.52168800
     8        -10.31327947         -2.27623086        -25.04868090
     8        -10.43544873          0.27447180        -28.82436885
     8         -8.21156768          1.70677321        -25.12799297
    16         -9.02101252         -0.45085446        -26.60097879
     8         -6.46512981         -1.93950168        -10.82363367
     1         -4.92781726         -1.96840857        -11.05942556
     1         -6.97085596         -3.49827527        -10.73707812
     8         -1.61827688         -7.51350839        -11.74231348
     1         -0.93766813         -6.47473516        -11.05038747
     1         -2.43175148         -8.44562091        -10.69600525

 Electric dipole moment (dipole orientation):
 (Debye = 10**-18 statcoulomb cm , SI units = C m)
                  (au)            (Debye)         (10**-30 SI)
   Tot        0.738790D+01      0.187782D+02      0.626372D+02
   x          0.000000D+00      0.000000D+00      0.000000D+00
   y          0.000000D+00      0.000000D+00      0.000000D+00
   z          0.738790D+01      0.187782D+02      0.626372D+02

 Dipole polarizability, Alpha (dipole orientation).
 (esu units = cm**3 , SI units = C**2 m**2 J**-1)
 Alpha(0;0):
               (au)            (10**-24 esu)      (10**-40 SI)
   iso        0.404477D+03      0.599373D+02      0.666892D+02
   aniso      0.405698D+03      0.601182D+02      0.668905D+02
   xx         0.453661D+03      0.672256D+02      0.747986D+02
   yx        -0.191690D+03     -0.284055D+02     -0.316053D+02
   yy         0.377492D+03      0.559386D+02      0.622400D+02
   zx        -0.104720D+03     -0.155179D+02     -0.172660D+02
   zy         0.730224D+02      0.108208D+02      0.120398D+02
   zz         0.382277D+03      0.566476D+02      0.630289D+02
 Alpha(-w;w) w=  632.8nm:
                  (au)         (10**-24 esu)      (10**-40 SI)
   iso        0.573057D+03      0.849183D+02      0.944844D+02
   aniso      0.925370D+03      0.137126D+03      0.152573D+03
   xx         0.750203D+03      0.111169D+03      0.123692D+03
   yx        -0.413603D+03     -0.612896D+02     -0.681939D+02
   yy         0.553887D+03      0.820775D+02      0.913236D+02
   zx        -0.236461D+03     -0.350400D+02     -0.389872D+02
   zy         0.173503D+03      0.257105D+02      0.286067D+02
   zz         0.415083D+03      0.615089D+02      0.684379D+02

 First dipole hyperpolarizability, Beta (dipole orientation).
 ||, _|_  parallel and perpendicular components, (z) with respect to z axis,
 vector components x,y,z.  Values do not include the 1/n! factor of 1/2.
 (esu units = statvolt**-1 cm**4 , SI units = C**3 m**3 J**-2)
 Beta(0;0,0):
               (au)            (10**-30 esu)      (10**-50 SI)
   || (z)     0.193836D+05      0.167460D+03      0.621510D+02
   _|_(z)     0.646122D+04      0.558199D+02      0.207170D+02
   x         -0.301005D+05     -0.260045D+03     -0.965130D+02
   y          0.221444D+05      0.191311D+03      0.710030D+02
   z          0.969182D+05      0.837298D+03      0.310755D+03
   ||         0.207746D+05      0.179476D+03      0.666108D+02
   xxx       -0.490935D+04     -0.424130D+02     -0.157412D+02
   xxy        0.371988D+04      0.321369D+02      0.119273D+02
   yxy       -0.281567D+04     -0.243252D+02     -0.902807D+01
   yyy        0.217171D+04      0.187619D+02      0.696329D+01
   xxz        0.240913D+04      0.208130D+02      0.772453D+01
   yxz       -0.180377D+04     -0.155832D+02     -0.578353D+01
   yyz        0.137650D+04      0.118919D+02      0.441356D+01
   zxz       -0.230846D+04     -0.199433D+02     -0.740176D+01
   zyz        0.148988D+04      0.128714D+02      0.477709D+01
   zzz        0.285205D+05      0.246395D+03      0.914469D+02
 Beta(-w;w,0) w=  632.8nm:
                  (au)         (10**-30 esu)      (10**-50 SI)
   || (z)     0.988180D+05      0.853710D+03      0.316846D+03
   _|_(z)     0.710585D+05      0.613890D+03      0.227839D+03
   x         -0.845248D+06     -0.730229D+04     -0.271017D+04
   y          0.648491D+06      0.560246D+04      0.207930D+04
   z          0.494090D+06      0.426855D+04      0.158423D+04
   ||         0.234871D+06      0.202910D+04      0.753082D+03
   xxx       -0.149684D+06     -0.129315D+04     -0.479941D+03
   yxx        0.114359D+06      0.987975D+03      0.366677D+03
   yyx       -0.873586D+05     -0.754710D+03     -0.280103D+03
   zxx        0.647737D+05      0.559595D+03      0.207688D+03
   zyx       -0.494446D+05     -0.427163D+03     -0.158537D+03
   zzx       -0.293806D+05     -0.253825D+03     -0.942047D+02
   xxy        0.114708D+06      0.990984D+03      0.367794D+03
   yxy       -0.876861D+05     -0.757540D+03     -0.281153D+03
   yyy        0.670856D+05      0.579567D+03      0.215101D+03
   zxy       -0.495751D+05     -0.428291D+03     -0.158956D+03
   zyy        0.378329D+05      0.326847D+03      0.121306D+03
   zzy        0.224764D+05      0.194179D+03      0.720675D+02
   xxz        0.135004D+06      0.116633D+04      0.432872D+03
   yxz       -0.105155D+06     -0.908461D+03     -0.337166D+03
   yyz        0.819603D+05      0.708073D+03      0.262794D+03
   zxz       -0.520427D+05     -0.449608D+03     -0.166868D+03
   zyz        0.406660D+05      0.351323D+03      0.130390D+03
   zzz        0.239707D+05      0.207088D+03      0.768588D+02
 Beta(-2w;w,w) w=  632.8nm:
                  (au)         (10**-30 esu)      (10**-50 SI)
   || (z)     0.155104D+06      0.133998D+04      0.497320D+03
   _|_(z)     0.353163D+05      0.305105D+03      0.113237D+03
   x         -0.143985D+07     -0.124392D+05     -0.461669D+04
   y          0.105693D+07      0.913107D+04      0.338891D+04
   z          0.775520D+06      0.669989D+04      0.248660D+04
   ||         0.389446D+06      0.336451D+04      0.124871D+04
   xxx       -0.267956D+06     -0.231493D+04     -0.859163D+03
   yxx        0.182870D+06      0.157986D+04      0.586348D+03
   zxx        0.116287D+06      0.100463D+04      0.372859D+03
   xyx        0.202429D+06      0.174883D+04      0.649062D+03
   yyx       -0.138332D+06     -0.119508D+04     -0.443541D+03
   zyx       -0.881674D+05     -0.761697D+03     -0.282696D+03
   xyy       -0.153353D+06     -0.132485D+04     -0.491706D+03
   yyy        0.104910D+06      0.906337D+03      0.336378D+03
   zyy        0.671633D+05      0.580239D+03      0.215350D+03
   xzx        0.151361D+06      0.130764D+04      0.485317D+03
   yzx       -0.104769D+06     -0.905119D+03     -0.335926D+03
   zzx       -0.653339D+05     -0.564434D+03     -0.209484D+03
   xzy       -0.117950D+06     -0.101899D+04     -0.378190D+03
   yzy        0.812453D+05      0.701896D+03      0.260502D+03
   zzy        0.512937D+05      0.443138D+03      0.164466D+03
   xzz       -0.753003D+05     -0.650536D+03     -0.241440D+03
   yzz        0.518871D+05      0.448264D+03      0.166369D+03
   zzz        0.422860D+05      0.365318D+03      0.135584D+03

 Second dipole hyperpolarizability, Gamma (dipole orientation).
 ||, _|_  isotropic parallel and perpendicular components.
 Values do not include the 1/n! factor of 1/6.
 (esu units = statvolt**-2 cm**5 , SI units = C**4 m**4 J**-3)
 Gamma(0;0,0,0):
               (au)            (10**-36 esu)      (10**-61 SI)
   ||         0.512978D+07      0.258371D+04      0.319861D+04
   _|_        0.170993D+07      0.861238D+03      0.106620D+04
   xxxx       0.241042D+06      0.121405D+03      0.150299D+03
   xxyx      -0.148287D+06     -0.746879D+02     -0.924629D+02
   xxyy       0.125788D+06      0.633555D+02      0.784335D+02
   yxyy      -0.985287D+05     -0.496259D+02     -0.614364D+02
   yyyy       0.121057D+06      0.609726D+02      0.754835D+02
   xxzx      -0.770574D+05     -0.388115D+02     -0.480482D+02
   xxzy       0.517896D+05      0.260849D+02      0.322928D+02
   yxzy      -0.449197D+05     -0.226247D+02     -0.280092D+02
   yyzy       0.425409D+05      0.214266D+02      0.265259D+02
   xxzz       0.547772D+05      0.275896D+02      0.341557D+02
   yxzz       0.578528D+04      0.291387D+01      0.360734D+01
   yyzz       0.195379D+05      0.984062D+01      0.121826D+02
   zxzz      -0.172957D+07     -0.871131D+03     -0.107845D+04
   zyzz       0.997834D+06      0.502579D+03      0.622188D+03
   zzzz       0.248813D+08      0.125320D+05      0.155144D+05
 Gamma(-w;w,0,0) w=  632.8nm:
                  (au)         (10**-36 esu)      (10**-61 SI)
   ||        -0.231305D+09     -0.116501D+06     -0.144227D+06
   _|_        0.146004D+09      0.735377D+05      0.910389D+05
   xxxx       0.120709D+08      0.607976D+04      0.752668D+04
   yxxx      -0.650070D+07     -0.327420D+04     -0.405343D+04
   yyxx       0.287595D+07      0.144853D+04      0.179326D+04
   zxxx      -0.667413D+07     -0.336156D+04     -0.416157D+04
   zyxx       0.418845D+07      0.210959D+04      0.261166D+04
   zzxx       0.387352D+07      0.195097D+04      0.241529D+04
   xxyx      -0.317049D+08     -0.159688D+05     -0.197692D+05
   yxyx       0.225440D+08      0.113547D+05      0.140570D+05
   yyyx      -0.158926D+08     -0.800464D+04     -0.990967D+04
   zxyx       0.143006D+08      0.720279D+04      0.891699D+04
   zyyx      -0.103641D+08     -0.522009D+04     -0.646243D+04
   zzyx      -0.674604D+07     -0.339778D+04     -0.420642D+04
   xxyy       0.118407D+09      0.596378D+05      0.738310D+05
   yxyy      -0.909850D+08     -0.458264D+05     -0.567326D+05
   yyyy       0.699701D+08      0.352418D+05      0.436290D+05
   zxyy      -0.474474D+08     -0.238978D+05     -0.295853D+05
   zyyy       0.364522D+08      0.183599D+05      0.227293D+05
   zzyy       0.189515D+08      0.954528D+04      0.118170D+05
   xxzx       0.610703D+09      0.307592D+06      0.380796D+06
   yxzx      -0.478637D+09     -0.241075D+06     -0.298448D+06
   yyzx       0.375114D+09      0.188933D+06      0.233898D+06
   zxzx      -0.226165D+09     -0.113913D+06     -0.141023D+06
   zyzx       0.176536D+09      0.889159D+05      0.110077D+06
   zzzx       0.808261D+08      0.407096D+05      0.503981D+05
   xxzy       0.191192D+09      0.962975D+05      0.119215D+06
   yxzy      -0.148660D+09     -0.748756D+05     -0.926953D+05
   yyzy       0.115578D+09      0.582130D+05      0.720671D+05
   zxzy      -0.693168D+08     -0.349128D+05     -0.432217D+05
   zyzy       0.539511D+08      0.271735D+05      0.336405D+05
   zzzy       0.242571D+08      0.122176D+05      0.151252D+05
   xxzz      -0.175722D+10     -0.885058D+06     -0.109569D+07
   yxzz       0.137327D+10      0.691674D+06      0.856286D+06
   yyzz      -0.107312D+10     -0.540499D+06     -0.669133D+06
   zxzz       0.640684D+09      0.322693D+06      0.399491D+06
   zyzz      -0.498666D+09     -0.251163D+06     -0.310937D+06
   zzzz      -0.225620D+09     -0.113638D+06     -0.140683D+06
 Gamma(-2w;w,w,0) w=  632.8nm:
                  (au)         (10**-36 esu)      (10**-61 SI)
   ||         0.410930D+09      0.206973D+06      0.256230D+06
   _|_        0.123075D+09      0.619892D+05      0.910389D+05
   xxxx       0.378298D+09      0.190537D+06      0.235883D+06
   yxxx      -0.317870D+09     -0.160102D+06     -0.198204D+06
   zxxx      -0.713223D+08     -0.359229D+05     -0.444722D+05
   xyxx      -0.280377D+09     -0.141217D+06     -0.174826D+06
   yyxx       0.236346D+09      0.119040D+06      0.147371D+06
   zyxx       0.524629D+08      0.264240D+05      0.327126D+05
   xyyx       0.207872D+09      0.104699D+06      0.129616D+06
   yyyx      -0.175709D+09     -0.884993D+05     -0.109561D+06
   zyyx      -0.386006D+08     -0.194420D+05     -0.240690D+05
   xzxx      -0.199537D+09     -0.100501D+06     -0.124419D+06
   yzxx       0.167707D+09      0.844688D+05      0.104572D+06
   zzxx       0.375736D+08      0.189247D+05      0.234286D+05
   xzyx       0.147268D+09      0.741744D+05      0.918272D+05
   yzyx      -0.124406D+09     -0.626595D+05     -0.775718D+05
   zzyx      -0.272960D+08     -0.137482D+05     -0.170201D+05
   xzzx       0.990994D+08      0.499134D+05      0.617922D+05
   yzzx      -0.826375D+08     -0.416220D+05     -0.515276D+05
   zzzx      -0.177252D+08     -0.892765D+04     -0.110523D+05
   xxxy      -0.694977D+09     -0.350039D+06     -0.433345D+06
   yxxy       0.483457D+09      0.243503D+06      0.301454D+06
   zxxy       0.432135D+09      0.217653D+06      0.269453D+06
   xyxy       0.513911D+09      0.258841D+06      0.320443D+06
   yyxy      -0.357494D+09     -0.180059D+06     -0.222911D+06
   zyxy      -0.319285D+09     -0.160814D+06     -0.199086D+06
   xyyy      -0.384176D+09     -0.193498D+06     -0.239549D+06
   yyyy       0.267312D+09      0.134637D+06      0.166679D+06
   zyyy       0.238625D+09      0.120188D+06      0.148792D+06
   xzxy       0.413588D+09      0.208312D+06      0.257888D+06
   yzxy      -0.286338D+09     -0.144220D+06     -0.178543D+06
   zzxy      -0.265741D+09     -0.133845D+06     -0.165699D+06
   xzyy      -0.308188D+09     -0.155225D+06     -0.192167D+06
   yzyy       0.213309D+09      0.107437D+06      0.133006D+06
   zzyy       0.197595D+09      0.995226D+05      0.123208D+06
   xzzy      -0.329861D+09     -0.166141D+06     -0.205681D+06
   yzzy       0.217537D+09      0.109567D+06      0.135642D+06
   zzzy       0.257701D+09      0.129796D+06      0.160686D+06
   xxxz      -0.549791D+09     -0.276913D+06     -0.342815D+06
   yxxz       0.423434D+09      0.213271D+06      0.264027D+06
   zxxz       0.171922D+09      0.865918D+05      0.107200D+06
   xyxz       0.412187D+09      0.207606D+06      0.257014D+06
   yyxz      -0.317536D+09     -0.159933D+06     -0.197996D+06
   zyxz      -0.129065D+09     -0.650062D+05     -0.804770D+05
   xyyz      -0.309247D+09     -0.155759D+06     -0.192828D+06
   yyyz       0.238241D+09      0.119995D+06      0.148553D+06
   zyyz       0.972044D+08      0.489589D+05      0.606106D+05
   xzxz       0.264424D+09      0.133182D+06      0.164878D+06
   yzxz      -0.202105D+09     -0.101794D+06     -0.126020D+06
   zzxz      -0.876478D+08     -0.441455D+05     -0.546518D+05
   xzyz      -0.199503D+09     -0.100484D+06     -0.124398D+06
   yzyz       0.152357D+09      0.767374D+05      0.950001D+05
   zzyz       0.665140D+08      0.335011D+05      0.414740D+05
   xzzz      -0.129947D+09     -0.654503D+05     -0.810269D+05
   yzzz       0.981331D+08      0.494267D+05      0.611897D+05
   zzzz       0.485377D+08      0.244470D+05      0.302651D+05

 ----------------------------------------------------------------------
 1\1\GINC-FLAME6\SP\RM06L\6-311+G(d)\C25H27N1O7S1\DANIELMACHADO\19-Jan-
 2021\0\\#p M06L/6-311+g(d) polar=gamma pop=chelpg density=current NoSy
 mm\\ONL_VSNS_0_M06L\\0,1\C,0,4.981328,0.071552,10.993252\H,0,5.23719,-
 0.321152,11.796859\C,0,3.721703,-0.115648,10.538604\H,0,3.115443,-0.62
 2336,11.027606\C,0,3.348624,0.456768,9.338043\H,0,2.486605,0.33696,9.0
 09138\C,0,4.260512,1.200576,8.637825\H,0,4.00856,1.584128,7.828959\C,0
 ,5.554116,1.39568,9.108582\C,0,6.571241,2.139654,8.393078\H,0,7.424292
 ,2.184832,8.762582\C,0,6.352534,2.76224,7.236733\H,0,5.487633,2.713152
 ,6.900267\C,0,7.313628,3.510208,6.44003\C,0,6.859881,4.16208,5.285657\
 H,0,5.964942,4.086784,5.044526\C,0,7.706735,4.910298,4.500788\C,0,9.05
 4207,5.005312,4.845144\C,0,9.516534,4.350528,5.975355\H,0,10.415511,4.
 407104,6.20498\C,0,8.65614,3.617536,6.763017\H,0,8.980968,3.189056,7.5
 21586\C,0,7.209337,0.995072,10.903999\H,0,7.243593,0.545792,11.752479\
 H,0,7.874112,0.624832,10.31917\H,0,7.37961,1.931072,11.030893\C,0,11.2
 11774,5.821504,4.267876\H,0,11.572521,4.932928,4.304859\H,0,11.643778,
 6.314048,3.566836\H,0,11.360398,6.262464,5.106986\N,0,5.874834,0.81452
 8,10.30602\O,0,7.303978,5.576563,3.386193\O,0,9.824057,5.755027,4.0096
 5\H,0,6.491451,5.35808,3.188784\C,0,11.625734,3.489158,8.897037\C,0,11
 .799321,4.840243,8.824879\H,0,11.333829,5.398848,9.405271\C,0,12.68416
 4,5.393856,7.871531\C,0,12.895367,6.78912,7.750719\H,0,12.443058,7.374
 848,8.313851\C,0,13.756273,7.278336,6.816602\H,0,13.881943,8.196864,6.
 744115\C,0,14.4509,6.418048,5.966807\H,0,15.035548,6.766656,5.332174\C
 ,0,14.279507,5.076032,6.059348\H,0,14.754396,4.512768,5.493257\C,0,13.
 388097,4.52192,7.004971\C,0,13.186172,3.129984,7.116085\H,0,13.649195,
 2.551744,6.553445\C,0,12.324882,2.624128,8.035244\H,0,12.196412,1.7047
 68,8.095239\O,0,9.413483,3.682848,10.235176\O,0,11.304968,2.659072,11.
 327088\O,0,10.131317,1.509414,9.570298\S,0,10.537122,2.790195,10.10844
 7\O,0,3.560232,2.189824,5.300286\H,0,4.022351,2.14656,4.62045\H,0,3.32
 5427,3.02016,5.397922\O,0,4.825874,4.922944,2.761915\H,0,4.705227,4.29
 312,2.368577\H,0,4.096599,5.3664,2.843607\\Version=EM64L-G09RevD.01\HF
 =-1947.9345974\RMSD=3.569e-09\Dipole=-6.6251516,-1.1041084,-3.0772279\
 Polar=448.6944361,142.0998381,361.1013193,-101.8822945,-149.5742994,40
 3.6342587\HyperPolar=-23712.4648301,-6123.0598162,-2751.2322197,-2026.
 2878442,-6261.2601654,661.8747196,1778.8439349,-6146.0322562,-2994.547
 368,1126.9469279\DQPolar=10176.6404324,-2790.6183393,-7386.0220931,497
 9.1619037,4808.4439036,1458.9491409,2711.6226788,3196.4670342,-5908.08
 9713,7110.1222421,-74.8351515,4307.535089,-5541.0093863,-3870.4398803,
 9411.4492666,-2808.1536742,5060.6724743,425.5767154\Quadrupole=-88.061
 6147,83.4328893,4.6287254,-42.2663625,-162.5731703,-47.0641224\PG=C01 
 [X(C25H27N1O7S1)]\\@


 PERICLES, SOPHOCLES,
 PELOPONESIAN WAR,
 FRENCH VERBS, LATIN VERBS
 H2SO4.
 Job cpu time:       8 days 11 hours  1 minutes 24.9 seconds.
 File lengths (MBytes):  RWF=   5125 Int=      0 D2E=      0 Chk=    122 Scr=      1
 Normal termination of Gaussian 09 at Tue Jan 19 11:01:57 2021.
Tue Jan 19 11:01:57 -02 2021
