Wed Jan 13 18:22:31 -02 2021
flame6
 Entering Gaussian System, Link 0=/usr/local/bin/G09/G09d/g09/g09
 Initial command:
 /usr/local/bin/G09/G09d//g09/l1.exe "/work/danielmachado/job-23477/Gau-8120.inp" -scrdir="/work/danielmachado/job-23477/"
 Entering Link 1 = /usr/local/bin/G09/G09d//g09/l1.exe PID=      8122.
  
 Copyright (c) 1988,1990,1992,1993,1995,1998,2003,2009,2013,
            Gaussian, Inc.  All Rights Reserved.
  
 This is part of the Gaussian(R) 09 program.  It is based on
 the Gaussian(R) 03 system (copyright 2003, Gaussian, Inc.),
 the Gaussian(R) 98 system (copyright 1998, Gaussian, Inc.),
 the Gaussian(R) 94 system (copyright 1995, Gaussian, Inc.),
 the Gaussian 92(TM) system (copyright 1992, Gaussian, Inc.),
 the Gaussian 90(TM) system (copyright 1990, Gaussian, Inc.),
 the Gaussian 88(TM) system (copyright 1988, Gaussian, Inc.),
 the Gaussian 86(TM) system (copyright 1986, Carnegie Mellon
 University), and the Gaussian 82(TM) system (copyright 1983,
 Carnegie Mellon University). Gaussian is a federally registered
 trademark of Gaussian, Inc.
  
 This software contains proprietary and confidential information,
 including trade secrets, belonging to Gaussian, Inc.
  
 This software is provided under written license and may be
 used, copied, transmitted, or stored only in accord with that
 written license.
  
 The following legend is applicable only to US Government
 contracts under FAR:
  
                    RESTRICTED RIGHTS LEGEND
  
 Use, reproduction and disclosure by the US Government is
 subject to restrictions as set forth in subparagraphs (a)
 and (c) of the Commercial Computer Software - Restricted
 Rights clause in FAR 52.227-19.
  
 Gaussian, Inc.
 340 Quinnipiac St., Bldg. 40, Wallingford CT 06492
  
  
 ---------------------------------------------------------------
 Warning -- This program may not be used in any manner that
 competes with the business of Gaussian, Inc. or will provide
 assistance to any competitor of Gaussian, Inc.  The licensee
 of this program is prohibited from giving any competitor of
 Gaussian, Inc. access to this program.  By using this program,
 the user acknowledges that Gaussian, Inc. is engaged in the
 business of creating and licensing software in the field of
 computational chemistry and represents and warrants to the
 licensee that it is not a competitor of Gaussian, Inc. and that
 it will not use this program in any manner prohibited above.
 ---------------------------------------------------------------
  

 Cite this work as:
 Gaussian 09, Revision D.01,
 M. J. Frisch, G. W. Trucks, H. B. Schlegel, G. E. Scuseria, 
 M. A. Robb, J. R. Cheeseman, G. Scalmani, V. Barone, B. Mennucci, 
 G. A. Petersson, H. Nakatsuji, M. Caricato, X. Li, H. P. Hratchian, 
 A. F. Izmaylov, J. Bloino, G. Zheng, J. L. Sonnenberg, M. Hada, 
 M. Ehara, K. Toyota, R. Fukuda, J. Hasegawa, M. Ishida, T. Nakajima, 
 Y. Honda, O. Kitao, H. Nakai, T. Vreven, J. A. Montgomery, Jr., 
 J. E. Peralta, F. Ogliaro, M. Bearpark, J. J. Heyd, E. Brothers, 
 K. N. Kudin, V. N. Staroverov, T. Keith, R. Kobayashi, J. Normand, 
 K. Raghavachari, A. Rendell, J. C. Burant, S. S. Iyengar, J. Tomasi, 
 M. Cossi, N. Rega, J. M. Millam, M. Klene, J. E. Knox, J. B. Cross, 
 V. Bakken, C. Adamo, J. Jaramillo, R. Gomperts, R. E. Stratmann, 
 O. Yazyev, A. J. Austin, R. Cammi, C. Pomelli, J. W. Ochterski, 
 R. L. Martin, K. Morokuma, V. G. Zakrzewski, G. A. Voth, 
 P. Salvador, J. J. Dannenberg, S. Dapprich, A. D. Daniels, 
 O. Farkas, J. B. Foresman, J. V. Ortiz, J. Cioslowski, 
 and D. J. Fox, Gaussian, Inc., Wallingford CT, 2013.
 
 ******************************************
 Gaussian 09:  EM64L-G09RevD.01 24-Apr-2013
                13-Jan-2021 
 ******************************************
 %nprocshared=8
 Will use up to    8 processors via shared memory.
 %chk=ONL_VSNS_0_CAM-B3LYP.chk
 %mem=40GB
 ---------------------------------------------------------------------
 #p CAM-B3LYP/6-311+g(d) polar=gamma pop=chelpg density=current NoSymm
 ---------------------------------------------------------------------
 1/30=1,38=101,83=1,84=49/1,6;
 2/12=2,15=1,17=6,18=5,40=1/2;
 3/5=4,6=6,7=11,11=2,16=1,25=1,30=1,74=-40/1,2,3;
 4/69=2/1;
 5/5=2,38=5,96=-2,98=1/2;
 8/6=4,10=90,11=11/1;
 10/6=20001,13=10,31=1,60=-2,72=3/2;
 6/7=2,8=2,9=2,10=2,12=2,15=8,20=3,22=-1,28=1/1,2;
 1/38=100,84=49/6(1);
 99/9=1/99;
 3/5=4,6=6,7=11,11=2,14=-3,16=1,25=1,30=1,74=-40/1,2,3;
 4/5=5,16=3,69=2/1;
 5/5=2,38=5,96=-2,98=1/2;
 8/6=4,10=90,11=11/1;
 10/6=20001,13=10,31=1,60=-2,72=3/2;
 6/7=2,8=2,9=2,10=2,12=2,15=8,20=3,22=-1,28=1/1,2;
 1/38=100,84=49/6(-6);
 99/9=1/99;
 Leave Link    1 at Wed Jan 13 18:22:31 2021, MaxMem=  5368709120 cpu:         0.3
 (Enter /usr/local/bin/G09/G09d//g09/l101.exe)
 --------------------
 ONL_VSNS_0_CAM-B3LYP
 --------------------
 Symbolic Z-matrix:
 Charge =  0 Multiplicity = 1
 C                     4.98133   0.07155   10.99325 
 H                     5.23719  -0.32115   11.79686 
 C                     3.7217   -0.11565   10.5386 
 H                     3.11544  -0.62234   11.02761 
 C                     3.34862   0.45677   9.33804 
 H                     2.4866    0.33696   9.00914 
 C                     4.26051   1.20058   8.63782 
 H                     4.00856   1.58413   7.82896 
 C                     5.55412   1.39568   9.10858 
 C                     6.57124   2.13965   8.39308 
 H                     7.42429   2.18483   8.76258 
 C                     6.35253   2.76224   7.23673 
 H                     5.48763   2.71315   6.90027 
 C                     7.31363   3.51021   6.44003 
 C                     6.85988   4.16208   5.28566 
 H                     5.96494   4.08678   5.04453 
 C                     7.70674   4.9103    4.50079 
 C                     9.05421   5.00531   4.84514 
 C                     9.51653   4.35053   5.97536 
 H                     10.41551   4.4071    6.20498 
 C                     8.65614   3.61754   6.76302 
 H                     8.98097   3.18906   7.52159 
 C                     7.20934   0.99507   10.904 
 H                     7.24359   0.54579   11.75248 
 H                     7.87411   0.62483   10.31917 
 H                     7.37961   1.93107   11.03089 
 C                     11.21177   5.8215    4.26788 
 H                     11.57252   4.93293   4.30486 
 H                     11.64378   6.31405   3.56684 
 H                     11.3604   6.26246   5.10699 
 N                     5.87483   0.81453   10.30602 
 O                     7.30398   5.57656   3.38619 
 O                     9.82406   5.75503   4.00965 
 H                     6.49145   5.35808   3.18878 
 C                     11.62573   3.48916   8.89704 
 C                     11.79932   4.84024   8.82488 
 H                     11.33383   5.39885   9.40527 
 C                     12.68416   5.39386   7.87153 
 C                     12.89537   6.78912   7.75072 
 H                     12.44306   7.37485   8.31385 
 C                     13.75627   7.27834   6.8166 
 H                     13.88194   8.19686   6.74412 
 C                     14.4509   6.41805   5.96681 
 H                     15.03555   6.76666   5.33217 
 C                     14.27951   5.07603   6.05935 
 H                     14.7544   4.51277   5.49326 
 C                     13.3881   4.52192   7.00497 
 C                     13.18617   3.12998   7.11608 
 H                     13.6492   2.55174   6.55344 
 C                     12.32488   2.62413   8.03524 
 H                     12.19641   1.70477   8.09524 
 O                     9.41348   3.68285   10.23518 
 O                     11.30497   2.65907   11.32709 
 O                     10.13132   1.50941   9.5703 
 S                     10.53712   2.7902    10.10845 
 O                     3.56023   2.18982   5.30029 
 H                     4.02235   2.14656   4.62045 
 H                     3.32543   3.02016   5.39792 
 O                     4.82587   4.92294   2.76192 
 H                     4.70523   4.29312   2.36858 
 H                     4.0966    5.3664    2.84361 
 
 NAtoms=     61 NQM=       61 NQMF=       0 NMMI=      0 NMMIF=      0
                NMic=       0 NMicF=      0.
                    Isotopes and Nuclear Properties:
 (Nuclear quadrupole moments (NQMom) in fm**2, nuclear magnetic moments (NMagM)
  in nuclear magnetons)

  Atom         1           2           3           4           5           6           7           8           9          10
 IAtWgt=          12           1          12           1          12           1          12           1          12          12
 AtmWgt=  12.0000000   1.0078250  12.0000000   1.0078250  12.0000000   1.0078250  12.0000000   1.0078250  12.0000000  12.0000000
 NucSpn=           0           1           0           1           0           1           0           1           0           0
 AtZEff=   0.0000000   0.0000000   0.0000000   0.0000000   0.0000000   0.0000000   0.0000000   0.0000000   0.0000000   0.0000000
 NQMom=    0.0000000   0.0000000   0.0000000   0.0000000   0.0000000   0.0000000   0.0000000   0.0000000   0.0000000   0.0000000
 NMagM=    0.0000000   2.7928460   0.0000000   2.7928460   0.0000000   2.7928460   0.0000000   2.7928460   0.0000000   0.0000000
 AtZNuc=   6.0000000   1.0000000   6.0000000   1.0000000   6.0000000   1.0000000   6.0000000   1.0000000   6.0000000   6.0000000

  Atom        11          12          13          14          15          16          17          18          19          20
 IAtWgt=           1          12           1          12          12           1          12          12          12           1
 AtmWgt=   1.0078250  12.0000000   1.0078250  12.0000000  12.0000000   1.0078250  12.0000000  12.0000000  12.0000000   1.0078250
 NucSpn=           1           0           1           0           0           1           0           0           0           1
 AtZEff=   0.0000000   0.0000000   0.0000000   0.0000000   0.0000000   0.0000000   0.0000000   0.0000000   0.0000000   0.0000000
 NQMom=    0.0000000   0.0000000   0.0000000   0.0000000   0.0000000   0.0000000   0.0000000   0.0000000   0.0000000   0.0000000
 NMagM=    2.7928460   0.0000000   2.7928460   0.0000000   0.0000000   2.7928460   0.0000000   0.0000000   0.0000000   2.7928460
 AtZNuc=   1.0000000   6.0000000   1.0000000   6.0000000   6.0000000   1.0000000   6.0000000   6.0000000   6.0000000   1.0000000

  Atom        21          22          23          24          25          26          27          28          29          30
 IAtWgt=          12           1          12           1           1           1          12           1           1           1
 AtmWgt=  12.0000000   1.0078250  12.0000000   1.0078250   1.0078250   1.0078250  12.0000000   1.0078250   1.0078250   1.0078250
 NucSpn=           0           1           0           1           1           1           0           1           1           1
 AtZEff=   0.0000000   0.0000000   0.0000000   0.0000000   0.0000000   0.0000000   0.0000000   0.0000000   0.0000000   0.0000000
 NQMom=    0.0000000   0.0000000   0.0000000   0.0000000   0.0000000   0.0000000   0.0000000   0.0000000   0.0000000   0.0000000
 NMagM=    0.0000000   2.7928460   0.0000000   2.7928460   2.7928460   2.7928460   0.0000000   2.7928460   2.7928460   2.7928460
 AtZNuc=   6.0000000   1.0000000   6.0000000   1.0000000   1.0000000   1.0000000   6.0000000   1.0000000   1.0000000   1.0000000

  Atom        31          32          33          34          35          36          37          38          39          40
 IAtWgt=          14          16          16           1          12          12           1          12          12           1
 AtmWgt=  14.0030740  15.9949146  15.9949146   1.0078250  12.0000000  12.0000000   1.0078250  12.0000000  12.0000000   1.0078250
 NucSpn=           2           0           0           1           0           0           1           0           0           1
 AtZEff=   0.0000000   0.0000000   0.0000000   0.0000000   0.0000000   0.0000000   0.0000000   0.0000000   0.0000000   0.0000000
 NQMom=    2.0440000   0.0000000   0.0000000   0.0000000   0.0000000   0.0000000   0.0000000   0.0000000   0.0000000   0.0000000
 NMagM=    0.4037610   0.0000000   0.0000000   2.7928460   0.0000000   0.0000000   2.7928460   0.0000000   0.0000000   2.7928460
 AtZNuc=   7.0000000   8.0000000   8.0000000   1.0000000   6.0000000   6.0000000   1.0000000   6.0000000   6.0000000   1.0000000

  Atom        41          42          43          44          45          46          47          48          49          50
 IAtWgt=          12           1          12           1          12           1          12          12           1          12
 AtmWgt=  12.0000000   1.0078250  12.0000000   1.0078250  12.0000000   1.0078250  12.0000000  12.0000000   1.0078250  12.0000000
 NucSpn=           0           1           0           1           0           1           0           0           1           0
 AtZEff=   0.0000000   0.0000000   0.0000000   0.0000000   0.0000000   0.0000000   0.0000000   0.0000000   0.0000000   0.0000000
 NQMom=    0.0000000   0.0000000   0.0000000   0.0000000   0.0000000   0.0000000   0.0000000   0.0000000   0.0000000   0.0000000
 NMagM=    0.0000000   2.7928460   0.0000000   2.7928460   0.0000000   2.7928460   0.0000000   0.0000000   2.7928460   0.0000000
 AtZNuc=   6.0000000   1.0000000   6.0000000   1.0000000   6.0000000   1.0000000   6.0000000   6.0000000   1.0000000   6.0000000

  Atom        51          52          53          54          55          56          57          58          59          60
 IAtWgt=           1          16          16          16          32          16           1           1          16           1
 AtmWgt=   1.0078250  15.9949146  15.9949146  15.9949146  31.9720718  15.9949146   1.0078250   1.0078250  15.9949146   1.0078250
 NucSpn=           1           0           0           0           0           0           1           1           0           1
 AtZEff=   0.0000000   0.0000000   0.0000000   0.0000000   0.0000000   0.0000000   0.0000000   0.0000000   0.0000000   0.0000000
 NQMom=    0.0000000   0.0000000   0.0000000   0.0000000   0.0000000   0.0000000   0.0000000   0.0000000   0.0000000   0.0000000
 NMagM=    2.7928460   0.0000000   0.0000000   0.0000000   0.0000000   0.0000000   2.7928460   2.7928460   0.0000000   2.7928460
 AtZNuc=   1.0000000   8.0000000   8.0000000   8.0000000  16.0000000   8.0000000   1.0000000   1.0000000   8.0000000   1.0000000

  Atom        61
 IAtWgt=           1
 AtmWgt=   1.0078250
 NucSpn=           1
 AtZEff=   0.0000000
 NQMom=    0.0000000
 NMagM=    2.7928460
 AtZNuc=   1.0000000
 Using perturbation frequencies:    0.000000    0.072000
 Leave Link  101 at Wed Jan 13 18:22:31 2021, MaxMem=  5368709120 cpu:         1.2
 (Enter /usr/local/bin/G09/G09d//g09/l106.exe)
 Differentiate once with respect to electric field.
 Nuclear step= 0.001000 Angstroms, electric field step= 0.000333 atomic units, NStep=1.
 Leave Link  106 at Wed Jan 13 18:22:32 2021, MaxMem=  5368709120 cpu:         0.0
 (Enter /usr/local/bin/G09/G09d//g09/l202.exe)
 Symmetry turned off by external request.
 Stoichiometry    C25H27NO7S
 Framework group  C1[X(C25H27NO7S)]
 Deg. of freedom   177
 Full point group                 C1      NOp   1
                          Input orientation:                          
 ---------------------------------------------------------------------
 Center     Atomic      Atomic             Coordinates (Angstroms)
 Number     Number       Type             X           Y           Z
 ---------------------------------------------------------------------
      1          6           0        4.981328    0.071552   10.993252
      2          1           0        5.237190   -0.321152   11.796859
      3          6           0        3.721703   -0.115648   10.538604
      4          1           0        3.115443   -0.622336   11.027606
      5          6           0        3.348624    0.456768    9.338043
      6          1           0        2.486605    0.336960    9.009138
      7          6           0        4.260512    1.200576    8.637825
      8          1           0        4.008560    1.584128    7.828959
      9          6           0        5.554116    1.395680    9.108582
     10          6           0        6.571241    2.139654    8.393078
     11          1           0        7.424292    2.184832    8.762582
     12          6           0        6.352534    2.762240    7.236733
     13          1           0        5.487633    2.713152    6.900267
     14          6           0        7.313628    3.510208    6.440030
     15          6           0        6.859881    4.162080    5.285657
     16          1           0        5.964942    4.086784    5.044526
     17          6           0        7.706735    4.910298    4.500788
     18          6           0        9.054207    5.005312    4.845144
     19          6           0        9.516534    4.350528    5.975355
     20          1           0       10.415511    4.407104    6.204980
     21          6           0        8.656140    3.617536    6.763017
     22          1           0        8.980968    3.189056    7.521586
     23          6           0        7.209337    0.995072   10.903999
     24          1           0        7.243593    0.545792   11.752479
     25          1           0        7.874112    0.624832   10.319170
     26          1           0        7.379610    1.931072   11.030893
     27          6           0       11.211774    5.821504    4.267876
     28          1           0       11.572521    4.932928    4.304859
     29          1           0       11.643778    6.314048    3.566836
     30          1           0       11.360398    6.262464    5.106986
     31          7           0        5.874834    0.814528   10.306020
     32          8           0        7.303978    5.576563    3.386193
     33          8           0        9.824057    5.755027    4.009650
     34          1           0        6.491451    5.358080    3.188784
     35          6           0       11.625734    3.489158    8.897037
     36          6           0       11.799321    4.840243    8.824879
     37          1           0       11.333829    5.398848    9.405271
     38          6           0       12.684164    5.393856    7.871531
     39          6           0       12.895367    6.789120    7.750719
     40          1           0       12.443058    7.374848    8.313851
     41          6           0       13.756273    7.278336    6.816602
     42          1           0       13.881943    8.196864    6.744115
     43          6           0       14.450900    6.418048    5.966807
     44          1           0       15.035548    6.766656    5.332174
     45          6           0       14.279507    5.076032    6.059348
     46          1           0       14.754396    4.512768    5.493257
     47          6           0       13.388097    4.521920    7.004971
     48          6           0       13.186172    3.129984    7.116085
     49          1           0       13.649195    2.551744    6.553445
     50          6           0       12.324882    2.624128    8.035244
     51          1           0       12.196412    1.704768    8.095239
     52          8           0        9.413483    3.682848   10.235176
     53          8           0       11.304968    2.659072   11.327088
     54          8           0       10.131317    1.509414    9.570298
     55         16           0       10.537122    2.790195   10.108447
     56          8           0        3.560232    2.189824    5.300286
     57          1           0        4.022351    2.146560    4.620450
     58          1           0        3.325427    3.020160    5.397922
     59          8           0        4.825874    4.922944    2.761915
     60          1           0        4.705227    4.293120    2.368577
     61          1           0        4.096599    5.366400    2.843607
 ---------------------------------------------------------------------
 Rotational constants (GHZ):      0.1356477      0.0772839      0.0516543
 Leave Link  202 at Wed Jan 13 18:22:32 2021, MaxMem=  5368709120 cpu:         0.0
 (Enter /usr/local/bin/G09/G09d//g09/l301.exe)
 Standard basis: 6-311+G(d) (5D, 7F)
 Ernie: Thresh=  0.10000D-02 Tol=  0.10000D-05 Strict=F.
   837 basis functions,  1373 primitive gaussians,   871 cartesian basis functions
   128 alpha electrons      128 beta electrons
       nuclear repulsion energy      3776.8843146181 Hartrees.
 IExCor=20419 DFT=T Ex+Corr=CAM-B3LYP ExCW=0 ScaHFX=  1.000000
 ScaDFX=  1.000000  1.000000  1.000000  0.810000 ScalE2=  1.000000  1.000000
 IRadAn=      0 IRanWt=     -1 IRanGd=            0 ICorTp=0 IEmpDi=  4
  HFx wShort=  0.000000 wLong=  0.330000 cFull=  0.190000 cShort=  0.000000 cLong=  0.460000
  DFx wShort=  0.000000 wLong=  0.330000 cFull=  0.190000 cShort=  0.000000 cLong=  0.460000
 NAtoms=   61 NActive=   61 NUniq=   61 SFac= 1.00D+00 NAtFMM=   60 NAOKFM=T Big=T
 Integral buffers will be    131072 words long.
 Raffenetti 2 integral format.
 Two-electron integral symmetry is turned off.
 Leave Link  301 at Wed Jan 13 18:22:32 2021, MaxMem=  5368709120 cpu:         0.5
 (Enter /usr/local/bin/G09/G09d//g09/l302.exe)
 NPDir=0 NMtPBC=     1 NCelOv=     1 NCel=       1 NClECP=     1 NCelD=      1
         NCelK=      1 NCelE2=     1 NClLst=     1 CellRange=     0.0.
 One-electron integrals computed using PRISM.
 NBasis=   837 RedAO= T EigKep=  1.14D-06  NBF=   837
 NBsUse=   827 1.00D-06 EigRej=  8.99D-07 NBFU=   827
 Precomputing XC quadrature grid using
 IXCGrd= 4 IRadAn=           0 IRanWt=          -1 IRanGd=           0 AccXCQ= 0.00D+00.
 Generated NRdTot=       0 NPtTot=           0 NUsed=           0 NTot=          32
 NSgBfM=   853   853   853   853   853 MxSgAt=    61 MxSgA2=    61.
 Leave Link  302 at Wed Jan 13 18:22:34 2021, MaxMem=  5368709120 cpu:        16.0
 (Enter /usr/local/bin/G09/G09d//g09/l303.exe)
 DipDrv:  MaxL=1.
 Leave Link  303 at Wed Jan 13 18:22:34 2021, MaxMem=  5368709120 cpu:         1.3
 (Enter /usr/local/bin/G09/G09d//g09/l401.exe)
 ExpMin= 4.05D-02 ExpMax= 9.34D+04 ExpMxC= 3.17D+03 IAcc=2 IRadAn=         4 AccDes= 0.00D+00
 Harris functional with IExCor=20419 and IRadAn=       4 diagonalized for initial guess.
 HarFok:  IExCor=20419 AccDes= 0.00D+00 IRadAn=         4 IDoV= 1 UseB2=F ITyADJ=14
 ICtDFT=  3500011 ScaDFX=  1.000000  1.000000  1.000000  1.000000
 FoFCou: FMM=F IPFlag=           0 FMFlag=      100000 FMFlg1=        2001
         NFxFlg=           0 DoJE=T BraDBF=F KetDBF=T FulRan=T
         wScrn=  0.000000 ICntrl=     500 IOpCl=  0 I1Cent=   200000004 NGrid=           0
         NMat0=    1 NMatS0=      1 NMatT0=    0 NMatD0=    1 NMtDS0=    0 NMtDT0=    0
 Symmetry not used in FoFCou.
 Harris En= -1883.07426884236    
 JPrj=0 DoOrth=F DoCkMO=F.
 Leave Link  401 at Wed Jan 13 18:22:40 2021, MaxMem=  5368709120 cpu:        47.8
 (Enter /usr/local/bin/G09/G09d//g09/l502.exe)
 Closed shell SCF:
 Using DIIS extrapolation, IDIIS=  1040.
 Two-electron integral symmetry not used.
 IVT=     2306789 IEndB=     2306789 NGot=  5368709120 MDV=  5367178484
 LenX=  5367178484 LenY=  5366418972
 Requested convergence on RMS density matrix=1.00D-08 within 128 cycles.
 Requested convergence on MAX density matrix=1.00D-06.
 Requested convergence on             energy=1.00D-06.
 No special actions if energy rises.
 Fock matrices will be formed incrementally for  20 cycles.

 Cycle   1  Pass 1  IDiag  1:
 FoFJK:  IHMeth= 1 ICntrl=       0 DoSepK=T KAlg= 0 I1Cent=   0 FoldK=F
 IRaf=         1 NMat=   1 IRICut=       1 DoRegI=T DoRafI=F ISym2E= 0.
 FoFCou: FMM=T IPFlag=           0 FMFlag=      100000 FMFlg1=        2001
         NFxFlg=           0 DoJE=T BraDBF=F KetDBF=F FulRan=T
         wScrn=  0.000000 ICntrl=     500 IOpCl=  0 I1Cent=           0 NGrid=           0
         NMat0=    1 NMatS0=      1 NMatT0=    0 NMatD0=    1 NMtDS0=    0 NMtDT0=    0
 Symmetry not used in FoFCou.
 FMM levels:  10  Number of levels for PrismC:   9
 E= -1946.69713268364    
 DIIS: error= 7.49D-02 at cycle   1 NSaved=   1.
 NSaved= 1 IEnMin= 1 EnMin= -1946.69713268364     IErMin= 1 ErrMin= 7.49D-02
 ErrMax= 7.49D-02  0.00D+00 EMaxC= 1.00D-01 BMatC= 3.62D+00 BMatP= 3.62D+00
 IDIUse=3 WtCom= 2.51D-01 WtEn= 7.49D-01
 Coeff-Com:  0.100D+01
 Coeff-En:   0.100D+01
 Coeff:      0.100D+01
 Gap=     0.243 Goal=   None    Shift=    0.000
 GapD=    0.243 DampG=1.000 DampE=0.500 DampFc=0.5000 IDamp=-1.
 Damping current iteration by 5.00D-01
 RMSDP=3.41D-02 MaxDP=4.32D+00              OVMax= 2.54D-01

 Cycle   2  Pass 1  IDiag  1:
 RMSU=  1.24D-02    CP:  1.14D+00
 E= -1947.00306595860     Delta-E=       -0.305933274961 Rises=F Damp=T
 DIIS: error= 3.22D-02 at cycle   2 NSaved=   2.
 NSaved= 2 IEnMin= 2 EnMin= -1947.00306595860     IErMin= 2 ErrMin= 3.22D-02
 ErrMax= 3.22D-02  0.00D+00 EMaxC= 1.00D-01 BMatC= 6.65D-01 BMatP= 3.62D+00
 IDIUse=3 WtCom= 6.78D-01 WtEn= 3.22D-01
 Coeff-Com: -0.376D+00 0.138D+01
 Coeff-En:   0.704D-01 0.930D+00
 Coeff:     -0.233D+00 0.123D+01
 Gap=     0.221 Goal=   None    Shift=    0.000
 RMSDP=1.39D-02 MaxDP=1.91D+00 DE=-3.06D-01 OVMax= 3.13D-01

 Cycle   3  Pass 1  IDiag  1:
 RMSU=  1.24D-02    CP:  1.09D+00  5.90D-01
 E= -1947.18250678815     Delta-E=       -0.179440829554 Rises=F Damp=F
 DIIS: error= 2.82D-02 at cycle   3 NSaved=   3.
 NSaved= 3 IEnMin= 3 EnMin= -1947.18250678815     IErMin= 3 ErrMin= 2.82D-02
 ErrMax= 2.82D-02  0.00D+00 EMaxC= 1.00D-01 BMatC= 2.72D-01 BMatP= 6.65D-01
 IDIUse=3 WtCom= 7.18D-01 WtEn= 2.82D-01
 Coeff-Com: -0.284D+00 0.676D+00 0.609D+00
 Coeff-En:   0.000D+00 0.130D+00 0.870D+00
 Coeff:     -0.204D+00 0.522D+00 0.682D+00
 Gap=     0.217 Goal=   None    Shift=    0.000
 RMSDP=8.18D-03 MaxDP=8.81D-01 DE=-1.79D-01 OVMax= 1.56D-01

 Cycle   4  Pass 1  IDiag  1:
 RMSU=  3.80D-03    CP:  1.11D+00  1.07D+00  6.84D-01
 E= -1947.36289896729     Delta-E=       -0.180392179137 Rises=F Damp=F
 DIIS: error= 1.18D-02 at cycle   4 NSaved=   4.
 NSaved= 4 IEnMin= 4 EnMin= -1947.36289896729     IErMin= 4 ErrMin= 1.18D-02
 ErrMax= 1.18D-02  0.00D+00 EMaxC= 1.00D-01 BMatC= 6.54D-02 BMatP= 2.72D-01
 IDIUse=3 WtCom= 8.82D-01 WtEn= 1.18D-01
 Coeff-Com: -0.827D-01 0.190D+00 0.391D+00 0.502D+00
 Coeff-En:   0.000D+00 0.000D+00 0.207D+00 0.793D+00
 Coeff:     -0.729D-01 0.167D+00 0.369D+00 0.536D+00
 Gap=     0.177 Goal=   None    Shift=    0.000
 RMSDP=2.35D-03 MaxDP=1.97D-01 DE=-1.80D-01 OVMax= 5.75D-02

 Cycle   5  Pass 1  IDiag  1:
 RMSU=  1.07D-03    CP:  1.10D+00  9.72D-01  7.47D-01  6.27D-01
 E= -1947.41742980562     Delta-E=       -0.054530838331 Rises=F Damp=F
 DIIS: error= 1.83D-03 at cycle   5 NSaved=   5.
 NSaved= 5 IEnMin= 5 EnMin= -1947.41742980562     IErMin= 5 ErrMin= 1.83D-03
 ErrMax= 1.83D-03  0.00D+00 EMaxC= 1.00D-01 BMatC= 7.92D-04 BMatP= 6.54D-02
 IDIUse=3 WtCom= 9.82D-01 WtEn= 1.83D-02
 Coeff-Com: -0.390D-03 0.504D-03 0.656D-01 0.177D+00 0.757D+00
 Coeff-En:   0.000D+00 0.000D+00 0.000D+00 0.000D+00 0.100D+01
 Coeff:     -0.383D-03 0.494D-03 0.644D-01 0.174D+00 0.762D+00
 Gap=     0.176 Goal=   None    Shift=    0.000
 RMSDP=9.14D-04 MaxDP=1.05D-01 DE=-5.45D-02 OVMax= 7.92D-03

 Cycle   6  Pass 1  IDiag  1:
 RMSU=  3.91D-04    CP:  1.10D+00  9.34D-01  7.64D-01  6.56D-01  7.48D-01
 E= -1947.41809826259     Delta-E=       -0.000668456976 Rises=F Damp=F
 DIIS: error= 5.76D-04 at cycle   6 NSaved=   6.
 NSaved= 6 IEnMin= 6 EnMin= -1947.41809826259     IErMin= 6 ErrMin= 5.76D-04
 ErrMax= 5.76D-04  0.00D+00 EMaxC= 1.00D-01 BMatC= 1.76D-04 BMatP= 7.92D-04
 IDIUse=3 WtCom= 9.94D-01 WtEn= 5.76D-03
 Coeff-Com:  0.710D-02-0.162D-01-0.102D-01 0.205D-01 0.383D+00 0.616D+00
 Coeff-En:   0.000D+00 0.000D+00 0.000D+00 0.000D+00 0.660D-01 0.934D+00
 Coeff:      0.706D-02-0.161D-01-0.101D-01 0.204D-01 0.381D+00 0.618D+00
 Gap=     0.176 Goal=   None    Shift=    0.000
 RMSDP=2.63D-04 MaxDP=2.19D-02 DE=-6.68D-04 OVMax= 4.23D-03

 Cycle   7  Pass 1  IDiag  1:
 RMSU=  1.20D-04    CP:  1.10D+00  9.43D-01  7.68D-01  6.77D-01  8.69D-01
                    CP:  6.93D-01
 E= -1947.41826107033     Delta-E=       -0.000162807733 Rises=F Damp=F
 DIIS: error= 1.47D-04 at cycle   7 NSaved=   7.
 NSaved= 7 IEnMin= 7 EnMin= -1947.41826107033     IErMin= 7 ErrMin= 1.47D-04
 ErrMax= 1.47D-04  0.00D+00 EMaxC= 1.00D-01 BMatC= 1.10D-05 BMatP= 1.76D-04
 IDIUse=3 WtCom= 9.99D-01 WtEn= 1.47D-03
 Coeff-Com:  0.239D-02-0.540D-02-0.115D-01-0.142D-01 0.691D-01 0.247D+00
 Coeff-Com:  0.713D+00
 Coeff-En:   0.000D+00 0.000D+00 0.000D+00 0.000D+00 0.000D+00 0.000D+00
 Coeff-En:   0.100D+01
 Coeff:      0.239D-02-0.540D-02-0.115D-01-0.142D-01 0.690D-01 0.246D+00
 Coeff:      0.713D+00
 Gap=     0.175 Goal=   None    Shift=    0.000
 RMSDP=8.82D-05 MaxDP=9.57D-03 DE=-1.63D-04 OVMax= 1.39D-03

 Cycle   8  Pass 1  IDiag  1:
 RMSU=  3.92D-05    CP:  1.10D+00  9.41D-01  7.68D-01  6.72D-01  8.68D-01
                    CP:  8.31D-01  8.36D-01
 E= -1947.41827410656     Delta-E=       -0.000013036233 Rises=F Damp=F
 DIIS: error= 4.25D-05 at cycle   8 NSaved=   8.
 NSaved= 8 IEnMin= 8 EnMin= -1947.41827410656     IErMin= 8 ErrMin= 4.25D-05
 ErrMax= 4.25D-05  0.00D+00 EMaxC= 1.00D-01 BMatC= 1.07D-06 BMatP= 1.10D-05
 IDIUse=1 WtCom= 1.00D+00 WtEn= 0.00D+00
 Coeff-Com:  0.168D-03-0.373D-03-0.309D-02-0.724D-02-0.130D-01 0.262D-01
 Coeff-Com:  0.247D+00 0.751D+00
 Coeff:      0.168D-03-0.373D-03-0.309D-02-0.724D-02-0.130D-01 0.262D-01
 Coeff:      0.247D+00 0.751D+00
 Gap=     0.175 Goal=   None    Shift=    0.000
 RMSDP=2.56D-05 MaxDP=2.32D-03 DE=-1.30D-05 OVMax= 7.71D-04

 Cycle   9  Pass 1  IDiag  1:
 RMSU=  1.56D-05    CP:  1.10D+00  9.41D-01  7.67D-01  6.72D-01  8.74D-01
                    CP:  8.27D-01  9.39D-01  7.13D-01
 E= -1947.41827603628     Delta-E=       -0.000001929722 Rises=F Damp=F
 DIIS: error= 2.51D-05 at cycle   9 NSaved=   9.
 NSaved= 9 IEnMin= 9 EnMin= -1947.41827603628     IErMin= 9 ErrMin= 2.51D-05
 ErrMax= 2.51D-05  0.00D+00 EMaxC= 1.00D-01 BMatC= 2.76D-07 BMatP= 1.07D-06
 IDIUse=1 WtCom= 1.00D+00 WtEn= 0.00D+00
 Coeff-Com: -0.400D-03 0.913D-03 0.118D-02-0.350D-04-0.220D-01-0.467D-01
 Coeff-Com: -0.613D-01 0.339D+00 0.789D+00
 Coeff:     -0.400D-03 0.913D-03 0.118D-02-0.350D-04-0.220D-01-0.467D-01
 Coeff:     -0.613D-01 0.339D+00 0.789D+00
 Gap=     0.175 Goal=   None    Shift=    0.000
 RMSDP=1.82D-05 MaxDP=1.96D-03 DE=-1.93D-06 OVMax= 5.61D-04

 Cycle  10  Pass 1  IDiag  1:
 RMSU=  7.52D-06    CP:  1.10D+00  9.41D-01  7.68D-01  6.72D-01  8.72D-01
                    CP:  8.47D-01  9.34D-01  9.72D-01  7.82D-01
 E= -1947.41827659170     Delta-E=       -0.000000555414 Rises=F Damp=F
 DIIS: error= 9.63D-06 at cycle  10 NSaved=  10.
 NSaved=10 IEnMin=10 EnMin= -1947.41827659170     IErMin=10 ErrMin= 9.63D-06
 ErrMax= 9.63D-06  0.00D+00 EMaxC= 1.00D-01 BMatC= 3.51D-08 BMatP= 2.76D-07
 IDIUse=1 WtCom= 1.00D+00 WtEn= 0.00D+00
 Coeff-Com: -0.191D-03 0.429D-03 0.836D-03 0.688D-03-0.821D-02-0.233D-01
 Coeff-Com: -0.531D-01 0.624D-01 0.338D+00 0.683D+00
 Coeff:     -0.191D-03 0.429D-03 0.836D-03 0.688D-03-0.821D-02-0.233D-01
 Coeff:     -0.531D-01 0.624D-01 0.338D+00 0.683D+00
 Gap=     0.175 Goal=   None    Shift=    0.000
 RMSDP=6.41D-06 MaxDP=7.64D-04 DE=-5.55D-07 OVMax= 1.53D-04

 Cycle  11  Pass 1  IDiag  1:
 RMSU=  3.51D-06    CP:  1.10D+00  9.41D-01  7.68D-01  6.71D-01  8.72D-01
                    CP:  8.44D-01  9.48D-01  9.58D-01  1.01D+00  8.16D-01
 E= -1947.41827665478     Delta-E=       -0.000000063081 Rises=F Damp=F
 DIIS: error= 2.65D-06 at cycle  11 NSaved=  11.
 NSaved=11 IEnMin=11 EnMin= -1947.41827665478     IErMin=11 ErrMin= 2.65D-06
 ErrMax= 2.65D-06  0.00D+00 EMaxC= 1.00D-01 BMatC= 6.88D-09 BMatP= 3.51D-08
 IDIUse=1 WtCom= 1.00D+00 WtEn= 0.00D+00
 Coeff-Com: -0.106D-04 0.208D-04 0.149D-03 0.319D-03 0.116D-02-0.137D-03
 Coeff-Com: -0.920D-02-0.460D-01-0.218D-01 0.303D+00 0.772D+00
 Coeff:     -0.106D-04 0.208D-04 0.149D-03 0.319D-03 0.116D-02-0.137D-03
 Coeff:     -0.920D-02-0.460D-01-0.218D-01 0.303D+00 0.772D+00
 Gap=     0.175 Goal=   None    Shift=    0.000
 RMSDP=2.62D-06 MaxDP=2.82D-04 DE=-6.31D-08 OVMax= 7.55D-05

 Cycle  12  Pass 1  IDiag  1:
 RMSU=  8.77D-07    CP:  1.10D+00  9.41D-01  7.68D-01  6.71D-01  8.72D-01
                    CP:  8.46D-01  9.42D-01  9.92D-01  9.92D-01  1.01D+00
                    CP:  8.63D-01
 E= -1947.41827666823     Delta-E=       -0.000000013451 Rises=F Damp=F
 DIIS: error= 1.13D-06 at cycle  12 NSaved=  12.
 NSaved=12 IEnMin=12 EnMin= -1947.41827666823     IErMin=12 ErrMin= 1.13D-06
 ErrMax= 1.13D-06  0.00D+00 EMaxC= 1.00D-01 BMatC= 1.12D-09 BMatP= 6.88D-09
 IDIUse=1 WtCom= 1.00D+00 WtEn= 0.00D+00
 Coeff-Com:  0.269D-04-0.610D-04-0.713D-04 0.434D-04 0.197D-02 0.390D-02
 Coeff-Com:  0.497D-02-0.330D-01-0.658D-01 0.469D-01 0.351D+00 0.690D+00
 Coeff:      0.269D-04-0.610D-04-0.713D-04 0.434D-04 0.197D-02 0.390D-02
 Coeff:      0.497D-02-0.330D-01-0.658D-01 0.469D-01 0.351D+00 0.690D+00
 Gap=     0.175 Goal=   None    Shift=    0.000
 RMSDP=1.39D-06 MaxDP=1.92D-04 DE=-1.35D-08 OVMax= 2.58D-05

 Cycle  13  Pass 1  IDiag  1:
 RMSU=  3.97D-07    CP:  1.10D+00  9.41D-01  7.68D-01  6.71D-01  8.72D-01
                    CP:  8.45D-01  9.45D-01  9.83D-01  1.02D+00  1.00D+00
                    CP:  1.03D+00  7.40D-01
 E= -1947.41827666993     Delta-E=       -0.000000001701 Rises=F Damp=F
 DIIS: error= 6.97D-07 at cycle  13 NSaved=  13.
 NSaved=13 IEnMin=13 EnMin= -1947.41827666993     IErMin=13 ErrMin= 6.97D-07
 ErrMax= 6.97D-07  0.00D+00 EMaxC= 1.00D-01 BMatC= 1.91D-10 BMatP= 1.12D-09
 IDIUse=1 WtCom= 1.00D+00 WtEn= 0.00D+00
 Coeff-Com:  0.129D-04-0.285D-04-0.542D-04-0.278D-04 0.559D-03 0.154D-02
 Coeff-Com:  0.376D-02-0.522D-02-0.224D-01-0.289D-01-0.153D-02 0.293D+00
 Coeff-Com:  0.760D+00
 Coeff:      0.129D-04-0.285D-04-0.542D-04-0.278D-04 0.559D-03 0.154D-02
 Coeff:      0.376D-02-0.522D-02-0.224D-01-0.289D-01-0.153D-02 0.293D+00
 Coeff:      0.760D+00
 Gap=     0.175 Goal=   None    Shift=    0.000
 RMSDP=3.85D-07 MaxDP=4.33D-05 DE=-1.70D-09 OVMax= 1.21D-05

 Cycle  14  Pass 1  IDiag  1:
 RMSU=  1.41D-07    CP:  1.10D+00  9.41D-01  7.68D-01  6.71D-01  8.72D-01
                    CP:  8.45D-01  9.44D-01  9.87D-01  1.01D+00  1.02D+00
                    CP:  1.03D+00  9.30D-01  8.88D-01
 E= -1947.41827667052     Delta-E=       -0.000000000588 Rises=F Damp=F
 DIIS: error= 1.78D-07 at cycle  14 NSaved=  14.
 NSaved=14 IEnMin=14 EnMin= -1947.41827667052     IErMin=14 ErrMin= 1.78D-07
 ErrMax= 1.78D-07  0.00D+00 EMaxC= 1.00D-01 BMatC= 3.33D-11 BMatP= 1.91D-10
 IDIUse=1 WtCom= 1.00D+00 WtEn= 0.00D+00
 Coeff-Com:  0.108D-05-0.229D-05-0.117D-04-0.192D-04-0.119D-03-0.194D-04
 Coeff-Com:  0.821D-03 0.343D-02 0.109D-02-0.214D-01-0.685D-01-0.856D-03
 Coeff-Com:  0.342D+00 0.743D+00
 Coeff:      0.108D-05-0.229D-05-0.117D-04-0.192D-04-0.119D-03-0.194D-04
 Coeff:      0.821D-03 0.343D-02 0.109D-02-0.214D-01-0.685D-01-0.856D-03
 Coeff:      0.342D+00 0.743D+00
 Gap=     0.175 Goal=   None    Shift=    0.000
 RMSDP=1.37D-07 MaxDP=1.36D-05 DE=-5.88D-10 OVMax= 5.00D-06

 Cycle  15  Pass 1  IDiag  1:
 RMSU=  5.59D-08    CP:  1.10D+00  9.41D-01  7.68D-01  6.71D-01  8.72D-01
                    CP:  8.45D-01  9.45D-01  9.88D-01  1.02D+00  1.02D+00
                    CP:  1.04D+00  9.03D-01  1.04D+00  8.40D-01
 E= -1947.41827667059     Delta-E=       -0.000000000077 Rises=F Damp=F
 DIIS: error= 7.85D-08 at cycle  15 NSaved=  15.
 NSaved=15 IEnMin=15 EnMin= -1947.41827667059     IErMin=15 ErrMin= 7.85D-08
 ErrMax= 7.85D-08  0.00D+00 EMaxC= 1.00D-01 BMatC= 3.24D-12 BMatP= 3.33D-11
 IDIUse=1 WtCom= 1.00D+00 WtEn= 0.00D+00
 Coeff-Com: -0.674D-06 0.151D-05-0.181D-06-0.769D-05-0.102D-03-0.150D-03
 Coeff-Com: -0.215D-04 0.180D-02 0.257D-02-0.415D-02-0.236D-01-0.328D-01
 Coeff-Com:  0.511D-01 0.273D+00 0.732D+00
 Coeff:     -0.674D-06 0.151D-05-0.181D-06-0.769D-05-0.102D-03-0.150D-03
 Coeff:     -0.215D-04 0.180D-02 0.257D-02-0.415D-02-0.236D-01-0.328D-01
 Coeff:      0.511D-01 0.273D+00 0.732D+00
 Gap=     0.175 Goal=   None    Shift=    0.000
 RMSDP=6.98D-08 MaxDP=6.92D-06 DE=-7.73D-11 OVMax= 1.20D-06

 Cycle  16  Pass 1  IDiag  1:
 RMSU=  4.39D-08    CP:  1.10D+00  9.41D-01  7.68D-01  6.71D-01  8.72D-01
                    CP:  8.45D-01  9.45D-01  9.88D-01  1.02D+00  1.02D+00
                    CP:  1.04D+00  9.10D-01  1.06D+00  1.00D+00  1.08D+00
 E= -1947.41827667064     Delta-E=       -0.000000000050 Rises=F Damp=F
 DIIS: error= 2.45D-08 at cycle  16 NSaved=  16.
 NSaved=16 IEnMin=16 EnMin= -1947.41827667064     IErMin=16 ErrMin= 2.45D-08
 ErrMax= 2.45D-08  0.00D+00 EMaxC= 1.00D-01 BMatC= 7.16D-13 BMatP= 3.24D-12
 IDIUse=1 WtCom= 1.00D+00 WtEn= 0.00D+00
 Coeff-Com: -0.535D-06 0.120D-05 0.233D-05-0.769D-07-0.276D-04-0.714D-04
 Coeff-Com: -0.176D-03 0.221D-03 0.105D-02 0.210D-02 0.115D-02-0.177D-01
 Coeff-Com: -0.384D-01-0.812D-02 0.341D+00 0.719D+00
 Coeff:     -0.535D-06 0.120D-05 0.233D-05-0.769D-07-0.276D-04-0.714D-04
 Coeff:     -0.176D-03 0.221D-03 0.105D-02 0.210D-02 0.115D-02-0.177D-01
 Coeff:     -0.384D-01-0.812D-02 0.341D+00 0.719D+00
 Gap=     0.175 Goal=   None    Shift=    0.000
 RMSDP=8.12D-08 MaxDP=1.04D-05 DE=-5.00D-11 OVMax= 4.85D-07

 Cycle  17  Pass 1  IDiag  1:
 RMSU=  6.12D-08    CP:  1.10D+00  9.41D-01  7.68D-01  6.71D-01  8.72D-01
                    CP:  8.45D-01  9.45D-01  9.88D-01  1.02D+00  1.02D+00
                    CP:  1.04D+00  9.19D-01  1.05D+00  9.64D-01  1.41D+00
                    CP:  1.56D+00
 E= -1947.41827667013     Delta-E=        0.000000000509 Rises=F Damp=F
 DIIS: error= 7.94D-09 at cycle  17 NSaved=  17.
 NSaved=17 IEnMin=16 EnMin= -1947.41827667064     IErMin=17 ErrMin= 7.94D-09
 ErrMax= 7.94D-09  0.00D+00 EMaxC= 1.00D-01 BMatC= 6.25D-14 BMatP= 7.16D-13
 IDIUse=1 WtCom= 1.00D+00 WtEn= 0.00D+00
 Coeff-Com: -0.749D-07 0.166D-06 0.680D-06 0.706D-06 0.177D-05-0.622D-05
 Coeff-Com: -0.530D-04-0.133D-03 0.323D-04 0.112D-02 0.284D-02-0.260D-02
 Coeff-Com: -0.173D-01-0.306D-01 0.317D-01 0.251D+00 0.764D+00
 Coeff:     -0.749D-07 0.166D-06 0.680D-06 0.706D-06 0.177D-05-0.622D-05
 Coeff:     -0.530D-04-0.133D-03 0.323D-04 0.112D-02 0.284D-02-0.260D-02
 Coeff:     -0.173D-01-0.306D-01 0.317D-01 0.251D+00 0.764D+00
 Gap=     0.175 Goal=   None    Shift=    0.000
 RMSDP=1.03D-07 MaxDP=1.17D-05 DE= 5.09D-10 OVMax= 1.46D-07

 Cycle  18  Pass 1  IDiag  1:
 RMSU=  3.42D-08    CP:  1.10D+00  9.41D-01  7.68D-01  6.71D-01  8.72D-01
                    CP:  8.45D-01  9.44D-01  9.88D-01  1.02D+00  1.02D+00
                    CP:  1.04D+00  9.38D-01  1.02D+00  9.27D-01  1.80D+00
                    CP:  2.49D+00  2.16D+00
 E= -1947.41827667037     Delta-E=       -0.000000000238 Rises=F Damp=F
 DIIS: error= 6.44D-09 at cycle  18 NSaved=  18.
 NSaved=18 IEnMin=16 EnMin= -1947.41827667064     IErMin=18 ErrMin= 6.44D-09
 ErrMax= 6.44D-09  0.00D+00 EMaxC= 1.00D-01 BMatC= 2.24D-14 BMatP= 6.25D-14
 IDIUse=1 WtCom= 1.00D+00 WtEn= 0.00D+00
 Coeff-Com: -0.355D-08 0.728D-08 0.182D-06 0.454D-06 0.296D-05 0.280D-05
 Coeff-Com: -0.930D-05-0.735D-04-0.606D-04 0.348D-03 0.121D-02 0.369D-03
 Coeff-Com: -0.464D-02-0.146D-01-0.218D-01 0.500D-01 0.413D+00 0.576D+00
 Coeff:     -0.355D-08 0.728D-08 0.182D-06 0.454D-06 0.296D-05 0.280D-05
 Coeff:     -0.930D-05-0.735D-04-0.606D-04 0.348D-03 0.121D-02 0.369D-03
 Coeff:     -0.464D-02-0.146D-01-0.218D-01 0.500D-01 0.413D+00 0.576D+00
 Gap=     0.175 Goal=   None    Shift=    0.000
 RMSDP=1.33D-07 MaxDP=1.41D-05 DE=-2.38D-10 OVMax= 2.74D-08

 Cycle  19  Pass 1  IDiag  1:
 RMSU=  6.04D-08    CP:  1.10D+00  9.41D-01  7.68D-01  6.71D-01  8.72D-01
                    CP:  8.45D-01  9.44D-01  9.88D-01  1.02D+00  1.02D+00
                    CP:  1.04D+00  9.69D-01  1.00D+00  8.63D-01  2.18D+00
                    CP:  3.00D+00  3.00D+00  2.16D+00
 E= -1947.41827667061     Delta-E=       -0.000000000241 Rises=F Damp=F
 DIIS: error= 7.11D-09 at cycle  19 NSaved=  19.
 NSaved=19 IEnMin=16 EnMin= -1947.41827667064     IErMin=18 ErrMin= 6.44D-09
 ErrMax= 7.11D-09  0.00D+00 EMaxC= 1.00D-01 BMatC= 1.86D-14 BMatP= 2.24D-14
 IDIUse=1 WtCom= 1.00D+00 WtEn= 0.00D+00
 Large coefficients: NSaved= 19 BigCof=    0.00 CofMax=   10.00 Det=-6.82D-15
 Inversion failed.  Reducing to 18 matrices.
 Coeff-Com: -0.868D-09 0.185D-06 0.500D-06 0.349D-05 0.362D-05-0.910D-05
 Coeff-Com: -0.835D-04-0.750D-04 0.376D-03 0.135D-02 0.531D-03-0.495D-02
 Coeff-Com: -0.162D-01-0.265D-01 0.515D-01 0.461D+00 0.680D+00-0.147D+00
 Coeff:     -0.868D-09 0.185D-06 0.500D-06 0.349D-05 0.362D-05-0.910D-05
 Coeff:     -0.835D-04-0.750D-04 0.376D-03 0.135D-02 0.531D-03-0.495D-02
 Coeff:     -0.162D-01-0.265D-01 0.515D-01 0.461D+00 0.680D+00-0.147D+00
 Gap=     0.175 Goal=   None    Shift=    0.000
 RMSDP=3.92D-08 MaxDP=3.48D-06 DE=-2.41D-10 OVMax= 2.27D-09

 Cycle  20  Pass 1  IDiag  1:
 RMSU=  8.38D-09    CP:  1.10D+00  9.41D-01  7.68D-01  6.71D-01  8.72D-01
                    CP:  8.45D-01  9.44D-01  9.88D-01  1.02D+00  1.02D+00
                    CP:  1.04D+00  9.61D-01  1.00D+00  8.58D-01  2.08D+00
                    CP:  3.00D+00  3.00D+00  1.79D+00  4.97D-01
 E= -1947.41827667099     Delta-E=       -0.000000000377 Rises=F Damp=F
 DIIS: error= 6.22D-09 at cycle  20 NSaved=  19.
 NSaved=19 IEnMin=19 EnMin= -1947.41827667099     IErMin=19 ErrMin= 6.22D-09
 ErrMax= 6.22D-09  0.00D+00 EMaxC= 1.00D-01 BMatC= 1.93D-14 BMatP= 1.86D-14
 IDIUse=1 WtCom= 1.00D+00 WtEn= 0.00D+00
 Large coefficients: NSaved= 19 BigCof=    0.00 CofMax=   10.00 Det=-1.80D-15
 Inversion failed.  Reducing to 18 matrices.
 Large coefficients: NSaved= 18 BigCof=    0.00 CofMax=   10.00 Det=-1.80D-15
 Inversion failed.  Reducing to 17 matrices.
 Large coefficients: NSaved= 17 BigCof=    0.00 CofMax=   10.00 Det=-1.80D-15
 Inversion failed.  Reducing to 16 matrices.
 Large coefficients: NSaved= 16 BigCof=    0.00 CofMax=   10.00 Det=-1.83D-15
 Inversion failed.  Reducing to 15 matrices.
 Coeff-Com:  0.172D-06-0.243D-05-0.180D-04-0.714D-05 0.153D-03 0.522D-03
 Coeff-Com:  0.928D-04-0.248D-02-0.977D-02-0.219D-01 0.389D-01 0.413D+00
 Coeff-Com:  0.658D+00-0.255D+00 0.178D+00
 Coeff:      0.172D-06-0.243D-05-0.180D-04-0.714D-05 0.153D-03 0.522D-03
 Coeff:      0.928D-04-0.248D-02-0.977D-02-0.219D-01 0.389D-01 0.413D+00
 Coeff:      0.658D+00-0.255D+00 0.178D+00
 Gap=     0.175 Goal=   None    Shift=    0.000
 RMSDP=1.98D-08 MaxDP=1.50D-06 DE=-3.77D-10 OVMax= 2.90D-09

 Cycle  21  Pass 1  IDiag  1:
 Restarting incremental Fock formation.
 E= -1947.41827667170     Delta-E=       -0.000000000706 Rises=F Damp=F
 DIIS: error= 2.76D-08 at cycle  21 NSaved=  16.
 NSaved=16 IEnMin=16 EnMin= -1947.41827667170     IErMin=15 ErrMin= 6.22D-09
 ErrMax= 2.76D-08  0.00D+00 EMaxC= 1.00D-01 BMatC= 3.06D-13 BMatP= 1.86D-14
 IDIUse=1 WtCom= 1.00D+00 WtEn= 0.00D+00
 Large coefficients: NSaved= 16 BigCof=    0.00 CofMax=   10.00 Det=-1.82D-15
 Inversion failed.  Reducing to 15 matrices.
 Coeff-Com: -0.272D-05-0.165D-04-0.413D-05 0.148D-03 0.495D-03 0.763D-04
 Coeff-Com: -0.238D-02-0.921D-02-0.206D-01 0.349D-01 0.381D+00 0.614D+00
 Coeff-Com: -0.223D+00 0.169D+00 0.553D-01
 Coeff:     -0.272D-05-0.165D-04-0.413D-05 0.148D-03 0.495D-03 0.763D-04
 Coeff:     -0.238D-02-0.921D-02-0.206D-01 0.349D-01 0.381D+00 0.614D+00
 Coeff:     -0.223D+00 0.169D+00 0.553D-01
 Gap=     0.175 Goal=   None    Shift=    0.000
 RMSDP=8.30D-08 MaxDP=9.55D-06 DE=-7.06D-10 OVMax= 6.92D-09

 Cycle  22  Pass 1  IDiag  1:
 RMSU=  8.15D-08    CP:  1.00D+00
 E= -1947.41827667136     Delta-E=        0.000000000334 Rises=F Damp=F
 DIIS: error= 2.71D-08 at cycle  22 NSaved=  16.
 NSaved=16 IEnMin=15 EnMin= -1947.41827667170     IErMin=14 ErrMin= 6.22D-09
 ErrMax= 2.71D-08  0.00D+00 EMaxC= 1.00D-01 BMatC= 2.76D-13 BMatP= 1.86D-14
 IDIUse=1 WtCom= 1.00D+00 WtEn= 0.00D+00
 Large coefficients: NSaved= 16 BigCof=    0.00 CofMax=   10.00 Det=-1.43D-15
 Inversion failed.  Reducing to 15 matrices.
 Coeff-Com: -0.110D-04-0.606D-05 0.111D-03 0.403D-03 0.103D-03-0.193D-02
 Coeff-Com: -0.817D-02-0.194D-01 0.314D-01 0.356D+00 0.580D+00-0.203D+00
 Coeff-Com:  0.184D+00-0.440D+00 0.521D+00
 Coeff:     -0.110D-04-0.606D-05 0.111D-03 0.403D-03 0.103D-03-0.193D-02
 Coeff:     -0.817D-02-0.194D-01 0.314D-01 0.356D+00 0.580D+00-0.203D+00
 Coeff:      0.184D+00-0.440D+00 0.521D+00
 Gap=     0.175 Goal=   None    Shift=    0.000
 RMSDP=6.58D-08 MaxDP=6.89D-06 DE= 3.34D-10 OVMax= 3.93D-09

 Cycle  23  Pass 1  IDiag  1:
 RMSU=  4.51D-08    CP:  1.00D+00  1.59D+00
 E= -1947.41827667166     Delta-E=       -0.000000000294 Rises=F Damp=F
 DIIS: error= 2.66D-08 at cycle  23 NSaved=  16.
 NSaved=16 IEnMin=14 EnMin= -1947.41827667170     IErMin=13 ErrMin= 6.22D-09
 ErrMax= 2.66D-08  0.00D+00 EMaxC= 1.00D-01 BMatC= 2.67D-13 BMatP= 1.86D-14
 IDIUse=1 WtCom= 1.00D+00 WtEn= 0.00D+00
 Large coefficients: NSaved= 16 BigCof=    0.00 CofMax=   10.00 Det=-6.98D-16
 Inversion failed.  Reducing to 15 matrices.
 Coeff-Com:  0.485D-05 0.767D-04 0.287D-03 0.285D-04-0.169D-02-0.749D-02
 Coeff-Com: -0.189D-01 0.298D-01 0.346D+00 0.576D+00-0.204D+00 0.195D+00
 Coeff-Com: -0.447D+00 0.349D+00 0.183D+00
 Coeff:      0.485D-05 0.767D-04 0.287D-03 0.285D-04-0.169D-02-0.749D-02
 Coeff:     -0.189D-01 0.298D-01 0.346D+00 0.576D+00-0.204D+00 0.195D+00
 Coeff:     -0.447D+00 0.349D+00 0.183D+00
 Gap=     0.175 Goal=   None    Shift=    0.000
 RMSDP=1.58D-08 MaxDP=1.51D-06 DE=-2.94D-10 OVMax= 3.00D-09

 Cycle  24  Pass 1  IDiag  1:
 RMSU=  7.57D-09    CP:  1.00D+00  1.70D+00  1.22D+00
 E= -1947.41827667113     Delta-E=        0.000000000525 Rises=F Damp=F
 DIIS: error= 2.67D-08 at cycle  24 NSaved=  16.
 NSaved=16 IEnMin=13 EnMin= -1947.41827667170     IErMin=12 ErrMin= 6.22D-09
 ErrMax= 2.67D-08  0.00D+00 EMaxC= 1.00D-01 BMatC= 2.63D-13 BMatP= 1.86D-14
 IDIUse=1 WtCom= 1.00D+00 WtEn= 0.00D+00
 Large coefficients: NSaved= 16 BigCof=    0.00 CofMax=   10.00 Det=-6.62D-16
 Inversion failed.  Reducing to 15 matrices.
 Coeff-Com:  0.741D-04 0.294D-03 0.329D-04-0.171D-02-0.750D-02-0.187D-01
 Coeff-Com:  0.302D-01 0.346D+00 0.571D+00-0.193D+00 0.188D+00-0.476D+00
 Coeff-Com:  0.399D+00 0.298D+00-0.136D+00
 Coeff:      0.741D-04 0.294D-03 0.329D-04-0.171D-02-0.750D-02-0.187D-01
 Coeff:      0.302D-01 0.346D+00 0.571D+00-0.193D+00 0.188D+00-0.476D+00
 Coeff:      0.399D+00 0.298D+00-0.136D+00
 Gap=     0.175 Goal=   None    Shift=    0.000
 RMSDP=9.44D-09 MaxDP=1.25D-06 DE= 5.25D-10 OVMax= 1.75D-09

 Cycle  25  Pass 1  IDiag  1:
 RMSU=  7.48D-09    CP:  1.00D+00  1.66D+00  1.15D+00  5.57D-01
 E= -1947.41827667138     Delta-E=       -0.000000000251 Rises=F Damp=F
 DIIS: error= 2.62D-08 at cycle  25 NSaved=  16.
 NSaved=16 IEnMin=12 EnMin= -1947.41827667170     IErMin=11 ErrMin= 6.22D-09
 ErrMax= 2.62D-08  0.00D+00 EMaxC= 1.00D-01 BMatC= 2.64D-13 BMatP= 1.86D-14
 IDIUse=1 WtCom= 1.00D+00 WtEn= 0.00D+00
 Large coefficients: NSaved= 16 BigCof=    0.00 CofMax=   10.00 Det=-6.29D-16
 Inversion failed.  Reducing to 15 matrices.
 Coeff-Com:  0.178D-03 0.537D-04-0.133D-02-0.672D-02-0.185D-01 0.288D-01
 Coeff-Com:  0.337D+00 0.554D+00-0.161D+00 0.179D+00-0.476D+00 0.302D+00
 Coeff-Com:  0.369D+00-0.342D+00 0.234D+00
 Coeff:      0.178D-03 0.537D-04-0.133D-02-0.672D-02-0.185D-01 0.288D-01
 Coeff:      0.337D+00 0.554D+00-0.161D+00 0.179D+00-0.476D+00 0.302D+00
 Coeff:      0.369D+00-0.342D+00 0.234D+00
 Gap=     0.175 Goal=   None    Shift=    0.000
 RMSDP=1.98D-08 MaxDP=2.01D-06 DE=-2.51D-10 OVMax= 1.25D-08

 Cycle  26  Pass 1  IDiag  1:
 RMSU=  1.80D-08    CP:  1.00D+00  1.63D+00  1.13D+00  7.32D-02  1.89D+00
 E= -1947.41827667128     Delta-E=        0.000000000098 Rises=F Damp=F
 DIIS: error= 2.57D-08 at cycle  26 NSaved=  16.
 NSaved=16 IEnMin=11 EnMin= -1947.41827667170     IErMin=10 ErrMin= 6.22D-09
 ErrMax= 2.57D-08  0.00D+00 EMaxC= 1.00D-01 BMatC= 2.67D-13 BMatP= 1.86D-14
 IDIUse=1 WtCom= 1.00D+00 WtEn= 0.00D+00
 Large coefficients: NSaved= 16 BigCof=    0.00 CofMax=   10.00 Det=-5.46D-16
 Inversion failed.  Reducing to 15 matrices.
 Coeff-Com: -0.796D-04-0.875D-03-0.525D-02-0.164D-01 0.289D-01 0.328D+00
 Coeff-Com:  0.538D+00-0.143D+00 0.182D+00-0.490D+00 0.305D+00 0.398D+00
 Coeff-Com: -0.378D+00 0.289D+00-0.352D-01
 Coeff:     -0.796D-04-0.875D-03-0.525D-02-0.164D-01 0.289D-01 0.328D+00
 Coeff:      0.538D+00-0.143D+00 0.182D+00-0.490D+00 0.305D+00 0.398D+00
 Coeff:     -0.378D+00 0.289D+00-0.352D-01
 Gap=     0.175 Goal=   None    Shift=    0.000
 RMSDP=4.48D-09 MaxDP=3.81D-07 DE= 9.82D-11 OVMax= 4.91D-09

 SCF Done:  E(RCAM-B3LYP) =  -1947.41827667     A.U. after   26 cycles
            NFock= 26  Conv=0.45D-08     -V/T= 1.9984
 KE= 1.950594933646D+03 PE=-1.212644302156D+04 EE= 4.451545496624D+03
 Leave Link  502 at Wed Jan 13 18:47:54 2021, MaxMem=  5368709120 cpu:     11958.4
 (Enter /usr/local/bin/G09/G09d//g09/l801.exe)
 DoSCS=F DFT=T ScalE2(SS,OS)=  1.000000  1.000000
 Range of M.O.s used for correlation:     1   827
 NBasis=   837 NAE=   128 NBE=   128 NFC=     0 NFV=     0
 NROrb=    827 NOA=   128 NOB=   128 NVA=   699 NVB=   699

 **** Warning!!: The largest alpha MO coefficient is  0.13273177D+03

 Leave Link  801 at Wed Jan 13 18:47:55 2021, MaxMem=  5368709120 cpu:         0.3
 (Enter /usr/local/bin/G09/G09d//g09/l1002.exe)
 Minotr:  Closed shell wavefunction.
          Direct CPHF calculation.
          Differentiating once with respect to electric field.
                with respect to dipole field.
          Electric field/nuclear overlap derivatives assumed to be zero.
          Requested convergence is 1.0D-08 RMS, and 1.0D-07 maximum.
          NewPWx=F KeepS1=T KeepF1=T KeepIn=T MapXYZ=F SortEE=F KeepMc=T.
          MDV=    5368707801 using IRadAn=       1.
 Generate precomputed XC quadrature information.
          Solving linear equations separately, MaxMat=      72.
          Doing perturbations at frequencies    0.000000    0.072000    0.144000
          There are     9 degrees of freedom in the 1st order CPHF.  IDoFFX=0 NUNeed=     9.
 LinEq1:  Iter=  0 NonCon=     9 RMS=1.23D-01 Max=4.32D+01 NDo=     9
 AX will form     9 AO Fock derivatives at one time.
 FoFJK:  IHMeth= 1 ICntrl=       0 DoSepK=T KAlg= 0 I1Cent=   0 FoldK=F
 IRaf=         1 NMat=  18 IRICut=       1 DoRegI=T DoRafI=F ISym2E= 0.
 FoFCou: FMM=T IPFlag=           0 FMFlag=      100000 FMFlg1=        2001
         NFxFlg=           0 DoJE=F BraDBF=F KetDBF=F FulRan=T
         wScrn=  0.000000 ICntrl=     500 IOpCl=  0 I1Cent=           0 NGrid=           0
         NMat0=    9 NMatS0=      9 NMatT0=    0 NMatD0=    9 NMtDS0=    0 NMtDT0=    0
 Symmetry not used in FoFCou.
 FMM levels:  10  Number of levels for PrismC:   9
 LinEq1:  Iter=  1 NonCon=     9 RMS=8.77D-02 Max=1.90D+01 NDo=     9
 LinEq1:  Iter=  2 NonCon=     9 RMS=7.54D-02 Max=7.54D+00 NDo=     9
 LinEq1:  Iter=  3 NonCon=     9 RMS=4.85D-02 Max=8.68D+00 NDo=     9
 LinEq1:  Iter=  4 NonCon=     9 RMS=5.82D-02 Max=1.59D+01 NDo=     9
 LinEq1:  Iter=  5 NonCon=     9 RMS=5.70D-02 Max=1.20D+01 NDo=     9
 LinEq1:  Iter=  6 NonCon=     9 RMS=4.89D-02 Max=8.92D+00 NDo=     9
 LinEq1:  Iter=  7 NonCon=     9 RMS=3.32D-02 Max=5.86D+00 NDo=     9
 LinEq1:  Iter=  8 NonCon=     9 RMS=2.70D-02 Max=4.66D+00 NDo=     9
 LinEq1:  Iter=  9 NonCon=     9 RMS=2.49D-02 Max=5.89D+00 NDo=     9
 LinEq1:  Iter= 10 NonCon=     9 RMS=2.13D-02 Max=4.59D+00 NDo=     9
 LinEq1:  Iter= 11 NonCon=     9 RMS=1.60D-02 Max=2.96D+00 NDo=     9
 LinEq1:  Iter= 12 NonCon=     9 RMS=1.04D-02 Max=1.30D+00 NDo=     9
 LinEq1:  Iter= 13 NonCon=     9 RMS=7.63D-03 Max=8.57D-01 NDo=     9
 LinEq1:  Iter= 14 NonCon=     9 RMS=5.72D-03 Max=1.08D+00 NDo=     9
 LinEq1:  Iter= 15 NonCon=     9 RMS=3.50D-03 Max=4.38D-01 NDo=     9
 LinEq1:  Iter= 16 NonCon=     9 RMS=2.56D-03 Max=4.18D-01 NDo=     9
 LinEq1:  Iter= 17 NonCon=     9 RMS=1.59D-03 Max=2.18D-01 NDo=     9
 LinEq1:  Iter= 18 NonCon=     9 RMS=1.10D-03 Max=1.79D-01 NDo=     9
 LinEq1:  Iter= 19 NonCon=     9 RMS=7.70D-04 Max=1.25D-01 NDo=     9
 LinEq1:  Iter= 20 NonCon=     9 RMS=5.26D-04 Max=6.11D-02 NDo=     9
 LinEq1:  Iter= 21 NonCon=     9 RMS=3.51D-04 Max=5.35D-02 NDo=     9
 LinEq1:  Iter= 22 NonCon=     9 RMS=2.31D-04 Max=2.88D-02 NDo=     9
 LinEq1:  Iter= 23 NonCon=     9 RMS=1.65D-04 Max=1.78D-02 NDo=     9
 LinEq1:  Iter= 24 NonCon=     9 RMS=1.01D-04 Max=1.30D-02 NDo=     9
 LinEq1:  Iter= 25 NonCon=     9 RMS=6.43D-05 Max=8.59D-03 NDo=     9
 LinEq1:  Iter= 26 NonCon=     9 RMS=4.05D-05 Max=6.80D-03 NDo=     9
 LinEq1:  Iter= 27 NonCon=     6 RMS=3.08D-05 Max=5.68D-03 NDo=     9
 LinEq1:  Iter= 28 NonCon=     6 RMS=2.12D-05 Max=3.50D-03 NDo=     6
 LinEq1:  Iter= 29 NonCon=     6 RMS=1.36D-05 Max=1.62D-03 NDo=     6
 LinEq1:  Iter= 30 NonCon=     4 RMS=8.71D-06 Max=1.04D-03 NDo=     6
 LinEq1:  Iter= 31 NonCon=     3 RMS=4.57D-06 Max=4.90D-04 NDo=     4
 LinEq1:  Iter= 32 NonCon=     3 RMS=2.74D-06 Max=2.98D-04 NDo=     3
 LinEq1:  Iter= 33 NonCon=     3 RMS=1.77D-06 Max=1.79D-04 NDo=     3
 LinEq1:  Iter= 34 NonCon=     3 RMS=1.09D-06 Max=1.10D-04 NDo=     3
 LinEq1:  Iter= 35 NonCon=     3 RMS=7.54D-07 Max=8.42D-05 NDo=     3
 LinEq1:  Iter= 36 NonCon=     3 RMS=4.78D-07 Max=5.03D-05 NDo=     3
 LinEq1:  Iter= 37 NonCon=     3 RMS=3.04D-07 Max=4.04D-05 NDo=     3
 LinEq1:  Iter= 38 NonCon=     3 RMS=1.85D-07 Max=2.31D-05 NDo=     3
 LinEq1:  Iter= 39 NonCon=     3 RMS=1.20D-07 Max=1.33D-05 NDo=     3
 LinEq1:  Iter= 40 NonCon=     3 RMS=6.26D-08 Max=7.87D-06 NDo=     3
 LinEq1:  Iter= 41 NonCon=     3 RMS=3.58D-08 Max=3.37D-06 NDo=     3
 LinEq1:  Iter= 42 NonCon=     3 RMS=2.24D-08 Max=2.02D-06 NDo=     3
 LinEq1:  Iter= 43 NonCon=     3 RMS=1.20D-08 Max=9.69D-07 NDo=     3
 LinEq1:  Iter= 44 NonCon=     3 RMS=7.67D-09 Max=5.88D-07 NDo=     3
 LinEq1:  Iter= 45 NonCon=     3 RMS=4.33D-09 Max=4.15D-07 NDo=     3
 LinEq1:  Iter= 46 NonCon=     3 RMS=2.64D-09 Max=1.96D-07 NDo=     3
 LinEq1:  Iter= 47 NonCon=     3 RMS=2.17D-09 Max=1.51D-07 NDo=     3
 LinEq1:  Iter= 48 NonCon=     1 RMS=2.30D-09 Max=1.22D-07 NDo=     3
 LinEq1:  Iter= 49 NonCon=     0 RMS=5.93D-10 Max=7.33D-08 NDo=     1
 Linear equations converged to 1.000D-08 1.000D-07 after    49 iterations.
 FullF1:  Do perturbations    1 to     9.
 SCF Polarizability for W=    0.000000:
                1             2             3 
      1  0.391574D+03
      2  0.114936D+03  0.339567D+03
      3 -0.916011D+02 -0.130273D+03  0.373355D+03
 Isotropic polarizability for W=    0.000000      368.17 Bohr**3.
 SCF Polarizability for W=    0.072000:
                1             2             3 
      1  0.445360D+03
      2  0.157552D+03  0.387400D+03
      3 -0.137148D+03 -0.176552D+03  0.431934D+03
 Isotropic polarizability for W=    0.072000      421.56 Bohr**3.
 SCF Polarizability for W=    0.144000:
                1             2             3 
      1  0.527113D+03
      2  0.366947D+03  0.769507D+03
      3 -0.450846D+03 -0.644013D+03  0.107242D+04
 Isotropic polarizability for W=    0.144000      789.68 Bohr**3.
 SCF Static Hyperpolarizability:
 K=  1 block:
                1 
      1 -0.230737D+04
 K=  2 block:
                1             2 
      1 -0.212990D+04
      2 -0.193948D+04 -0.179659D+04
 K=  3 block:
                1             2             3 
      1  0.233725D+04
      2  0.218285D+04  0.195070D+04
      3 -0.255352D+04 -0.213197D+04  0.227968D+04
 SCF Beta(-W,W;0) for W=    0.072000:
 K=  1 block:
                1             2             3 
      1 -0.587176D+04
      2 -0.537115D+04 -0.500088D+04
      3  0.593280D+04  0.568261D+04 -0.663816D+04
 K=  2 block:
                1             2             3 
      1 -0.552719D+04
      2 -0.501708D+04 -0.464655D+04
      3  0.559493D+04  0.514114D+04 -0.572422D+04
 K=  3 block:
                1             2             3 
      1  0.615159D+04
      2  0.563837D+04  0.508195D+04
      3 -0.647103D+04 -0.566135D+04  0.623601D+04
 SCF Beta(W,W;-2W) for W=    0.072000:
 K=  1 block:
                1             2             3 
      1  0.624194D+04
      2  0.792112D+04  0.541282D+04
      3 -0.865981D+04 -0.477145D+04  0.314523D+04
 K=  2 block:
                1             2             3 
      1  0.390844D+04
      2  0.792515D+04  0.741332D+04
      3 -0.949210D+04 -0.816528D+04  0.875170D+04
 K=  3 block:
                1             2             3 
      1 -0.357708D+04
      2 -0.924063D+04 -0.976634D+04
      3  0.112459D+05  0.112329D+05 -0.129766D+05
 SCF Beta(-W,W;0) for W=    0.144000:
 K=  1 block:
                1             2             3 
      1 -0.704947D+06
      2 -0.891524D+06 -0.124078D+07
      3  0.114366D+07  0.164218D+07 -0.219452D+07
 K=  2 block:
                1             2             3 
      1 -0.661000D+06
      2 -0.810218D+06 -0.107645D+07
      3  0.102411D+07  0.139692D+07 -0.182739D+07
 K=  3 block:
                1             2             3 
      1  0.703885D+06
      2  0.845898D+06  0.109204D+07
      3 -0.105992D+07 -0.139895D+07  0.180306D+07
 End of Minotr F.D. properties on file   721 Mask=      31 NFrqRd=     2 NDeriv=     1 ND12= 1 LenFil=      94:
 Frequencies=    0.000000    0.072000
 Property number 1 -- Alpha(-w,w) frequency  1    0.000000:
                 1             2             3 
      1   0.391574D+03  0.114936D+03 -0.916011D+02
      2   0.114936D+03  0.339567D+03 -0.130273D+03
      3  -0.916011D+02 -0.130273D+03  0.373355D+03
 Property number 1 -- Alpha(-w,w) frequency  2    0.072000:
                 1             2             3 
      1   0.445360D+03  0.157552D+03 -0.137148D+03
      2   0.157552D+03  0.387400D+03 -0.176552D+03
      3  -0.137148D+03 -0.176552D+03  0.431934D+03
 Property number 5 -- Beta(-w,w,0) frequency  1    0.000000:
                 1 
      1  -0.230737D+04
      2  -0.212990D+04
      3  -0.193948D+04
      4   0.233725D+04
      5   0.218285D+04
      6  -0.255352D+04
      7  -0.212990D+04
      8  -0.193948D+04
      9  -0.179659D+04
     10   0.218285D+04
     11   0.195070D+04
     12  -0.213197D+04
     13   0.233725D+04
     14   0.218285D+04
     15   0.195070D+04
     16  -0.255352D+04
     17  -0.213197D+04
     18   0.227968D+04
 Property number 5 -- Beta(-w,w,0) frequency  2    0.072000:
                 1 
      1  -0.587176D+04
      2  -0.537115D+04
      3  -0.500088D+04
      4   0.593280D+04
      5   0.568261D+04
      6  -0.663816D+04
      7  -0.552719D+04
      8  -0.501708D+04
      9  -0.464655D+04
     10   0.559493D+04
     11   0.514114D+04
     12  -0.572422D+04
     13   0.615159D+04
     14   0.563837D+04
     15   0.508195D+04
     16  -0.647103D+04
     17  -0.566135D+04
     18   0.623601D+04
 Property number 6 -- Beta(w,w,-2w) frequency  1    0.000000:
                 1 
      1  -0.230737D+04
      2  -0.212990D+04
      3  -0.193948D+04
      4   0.233725D+04
      5   0.218285D+04
      6  -0.255352D+04
      7  -0.212990D+04
      8  -0.193948D+04
      9  -0.179659D+04
     10   0.218285D+04
     11   0.195070D+04
     12  -0.213197D+04
     13   0.233725D+04
     14   0.218285D+04
     15   0.195070D+04
     16  -0.255352D+04
     17  -0.213197D+04
     18   0.227968D+04
 Property number 6 -- Beta(w,w,-2w) frequency  2    0.072000:
                 1 
      1   0.624194D+04
      2   0.792112D+04
      3   0.541282D+04
      4  -0.865981D+04
      5  -0.477145D+04
      6   0.314523D+04
      7   0.390844D+04
      8   0.792515D+04
      9   0.741332D+04
     10  -0.949210D+04
     11  -0.816528D+04
     12   0.875170D+04
     13  -0.357708D+04
     14  -0.924063D+04
     15  -0.976634D+04
     16   0.112459D+05
     17   0.112329D+05
     18  -0.129766D+05
 End of Minotr F.D. properties file   722 does not exist.
 End of Minotr F.D. properties file   788 does not exist.
 Leave Link 1002 at Wed Jan 13 23:00:30 2021, MaxMem=  5368709120 cpu:    120954.5
 (Enter /usr/local/bin/G09/G09d//g09/l601.exe)
 Copying SCF densities to generalized density rwf, IOpCl= 0 IROHF=0.

 **********************************************************************

            Population analysis using the SCF density.

 **********************************************************************

 Alpha  occ. eigenvalues --  -89.05137 -19.23980 -19.22765 -19.21670 -19.19903
 Alpha  occ. eigenvalues --  -19.09493 -19.09428 -19.08569 -14.52429 -10.36757
 Alpha  occ. eigenvalues --  -10.34285 -10.30780 -10.30649 -10.30457 -10.29303
 Alpha  occ. eigenvalues --  -10.29258 -10.27298 -10.26340 -10.25674 -10.25430
 Alpha  occ. eigenvalues --  -10.24029 -10.23742 -10.23730 -10.23677 -10.23072
 Alpha  occ. eigenvalues --  -10.22618 -10.22537 -10.21711 -10.21709 -10.21515
 Alpha  occ. eigenvalues --  -10.21433 -10.21093 -10.21080 -10.20872  -8.11482
 Alpha  occ. eigenvalues --   -6.07836  -6.07798  -6.07755  -1.24938  -1.20634
 Alpha  occ. eigenvalues --   -1.16307  -1.15603  -1.14918  -1.14057  -1.00489
 Alpha  occ. eigenvalues --   -0.99837  -0.98525  -0.96919  -0.95538  -0.95101
 Alpha  occ. eigenvalues --   -0.90502  -0.90189  -0.87324  -0.85769  -0.85196
 Alpha  occ. eigenvalues --   -0.84750  -0.82285  -0.81766  -0.80685  -0.80332
 Alpha  occ. eigenvalues --   -0.77498  -0.76000  -0.73725  -0.72835  -0.71689
 Alpha  occ. eigenvalues --   -0.71441  -0.69739  -0.69140  -0.68914  -0.67935
 Alpha  occ. eigenvalues --   -0.65953  -0.63941  -0.63300  -0.63158  -0.61266
 Alpha  occ. eigenvalues --   -0.60907  -0.60363  -0.60189  -0.59594  -0.58455
 Alpha  occ. eigenvalues --   -0.57161  -0.55672  -0.55114  -0.54655  -0.54271
 Alpha  occ. eigenvalues --   -0.53835  -0.53360  -0.53032  -0.52877  -0.51873
 Alpha  occ. eigenvalues --   -0.51636  -0.51121  -0.50873  -0.50485  -0.50054
 Alpha  occ. eigenvalues --   -0.49153  -0.48964  -0.48904  -0.47732  -0.47071
 Alpha  occ. eigenvalues --   -0.46841  -0.46253  -0.46126  -0.45385  -0.44678
 Alpha  occ. eigenvalues --   -0.44437  -0.44156  -0.43781  -0.42258  -0.41526
 Alpha  occ. eigenvalues --   -0.41227  -0.40726  -0.40024  -0.39583  -0.39340
 Alpha  occ. eigenvalues --   -0.38617  -0.34868  -0.34419  -0.34073  -0.33512
 Alpha  occ. eigenvalues --   -0.31129  -0.30304  -0.30202  -0.29862  -0.27362
 Alpha  occ. eigenvalues --   -0.25761  -0.25197  -0.25079
 Alpha virt. eigenvalues --   -0.07575  -0.04819  -0.01417   0.00286   0.01158
 Alpha virt. eigenvalues --    0.02252   0.02515   0.02932   0.03422   0.03786
 Alpha virt. eigenvalues --    0.03939   0.04586   0.04801   0.05294   0.05487
 Alpha virt. eigenvalues --    0.05673   0.06317   0.06428   0.07080   0.07581
 Alpha virt. eigenvalues --    0.07870   0.08072   0.08313   0.09145   0.09256
 Alpha virt. eigenvalues --    0.09375   0.09692   0.09898   0.10075   0.10514
 Alpha virt. eigenvalues --    0.10615   0.10918   0.11499   0.11732   0.12137
 Alpha virt. eigenvalues --    0.12338   0.12391   0.13031   0.13164   0.13445
 Alpha virt. eigenvalues --    0.13794   0.14030   0.14272   0.14386   0.14633
 Alpha virt. eigenvalues --    0.14930   0.15261   0.15449   0.15815   0.16245
 Alpha virt. eigenvalues --    0.16746   0.17013   0.17123   0.17247   0.17419
 Alpha virt. eigenvalues --    0.17717   0.18018   0.18316   0.18437   0.18834
 Alpha virt. eigenvalues --    0.19127   0.19241   0.19295   0.19771   0.20105
 Alpha virt. eigenvalues --    0.20263   0.20328   0.20657   0.20871   0.21076
 Alpha virt. eigenvalues --    0.21349   0.21500   0.21689   0.21861   0.22133
 Alpha virt. eigenvalues --    0.22376   0.22532   0.22840   0.23044   0.23275
 Alpha virt. eigenvalues --    0.23386   0.23597   0.23720   0.23779   0.23968
 Alpha virt. eigenvalues --    0.24161   0.24417   0.24562   0.24788   0.24979
 Alpha virt. eigenvalues --    0.25151   0.25301   0.25502   0.25806   0.26096
 Alpha virt. eigenvalues --    0.26323   0.26445   0.26623   0.27028   0.27125
 Alpha virt. eigenvalues --    0.27167   0.27478   0.27522   0.27907   0.28044
 Alpha virt. eigenvalues --    0.28068   0.28468   0.28712   0.28983   0.29145
 Alpha virt. eigenvalues --    0.29340   0.29534   0.29869   0.30089   0.30319
 Alpha virt. eigenvalues --    0.30525   0.30782   0.30797   0.31109   0.31386
 Alpha virt. eigenvalues --    0.31702   0.31991   0.32049   0.32279   0.32654
 Alpha virt. eigenvalues --    0.32838   0.33314   0.33511   0.33573   0.33858
 Alpha virt. eigenvalues --    0.34050   0.34328   0.34369   0.34382   0.35253
 Alpha virt. eigenvalues --    0.35678   0.35851   0.36007   0.36231   0.36305
 Alpha virt. eigenvalues --    0.36805   0.36936   0.37113   0.37375   0.37741
 Alpha virt. eigenvalues --    0.37875   0.38187   0.38693   0.38939   0.39013
 Alpha virt. eigenvalues --    0.39334   0.39654   0.40017   0.40388   0.40490
 Alpha virt. eigenvalues --    0.40809   0.40945   0.41540   0.41645   0.41891
 Alpha virt. eigenvalues --    0.42030   0.42386   0.42871   0.42968   0.43617
 Alpha virt. eigenvalues --    0.43722   0.44164   0.44422   0.44811   0.45389
 Alpha virt. eigenvalues --    0.45876   0.45917   0.46285   0.46611   0.46860
 Alpha virt. eigenvalues --    0.47364   0.47889   0.47932   0.48701   0.49462
 Alpha virt. eigenvalues --    0.50222   0.50231   0.50618   0.50863   0.51564
 Alpha virt. eigenvalues --    0.51738   0.52564   0.52997   0.53104   0.53959
 Alpha virt. eigenvalues --    0.54750   0.55380   0.56359   0.56869   0.57094
 Alpha virt. eigenvalues --    0.57473   0.57821   0.58051   0.58479   0.59078
 Alpha virt. eigenvalues --    0.59411   0.59855   0.59926   0.60021   0.60356
 Alpha virt. eigenvalues --    0.60746   0.61417   0.61840   0.62323   0.62553
 Alpha virt. eigenvalues --    0.62785   0.63484   0.63781   0.63933   0.64110
 Alpha virt. eigenvalues --    0.64977   0.65302   0.65608   0.66225   0.66823
 Alpha virt. eigenvalues --    0.66965   0.67641   0.67967   0.68282   0.68536
 Alpha virt. eigenvalues --    0.69117   0.69228   0.69504   0.69912   0.70331
 Alpha virt. eigenvalues --    0.70726   0.71207   0.71685   0.72010   0.72235
 Alpha virt. eigenvalues --    0.72701   0.73259   0.73518   0.73664   0.74342
 Alpha virt. eigenvalues --    0.74675   0.74943   0.75318   0.75647   0.76045
 Alpha virt. eigenvalues --    0.76315   0.76908   0.77115   0.77533   0.78224
 Alpha virt. eigenvalues --    0.78624   0.78928   0.79241   0.79774   0.80237
 Alpha virt. eigenvalues --    0.80549   0.80910   0.81179   0.81585   0.81843
 Alpha virt. eigenvalues --    0.81939   0.82496   0.82653   0.82889   0.83422
 Alpha virt. eigenvalues --    0.84009   0.84208   0.84300   0.84923   0.86132
 Alpha virt. eigenvalues --    0.86480   0.86740   0.87167   0.87465   0.87790
 Alpha virt. eigenvalues --    0.87937   0.88869   0.89313   0.89694   0.90257
 Alpha virt. eigenvalues --    0.90850   0.90994   0.91831   0.93064   0.93389
 Alpha virt. eigenvalues --    0.93972   0.94915   0.95521   0.95926   0.95970
 Alpha virt. eigenvalues --    0.96554   0.97090   0.97305   0.98224   0.98384
 Alpha virt. eigenvalues --    0.98841   0.99249   0.99688   1.00695   1.01137
 Alpha virt. eigenvalues --    1.01365   1.01993   1.02063   1.02475   1.03572
 Alpha virt. eigenvalues --    1.04222   1.04329   1.04767   1.05026   1.05939
 Alpha virt. eigenvalues --    1.06295   1.07035   1.07348   1.07749   1.08040
 Alpha virt. eigenvalues --    1.08484   1.08797   1.09291   1.09770   1.10622
 Alpha virt. eigenvalues --    1.10976   1.11433   1.11624   1.12250   1.12522
 Alpha virt. eigenvalues --    1.13377   1.13732   1.14190   1.14657   1.14876
 Alpha virt. eigenvalues --    1.15214   1.16314   1.16766   1.17967   1.18580
 Alpha virt. eigenvalues --    1.18921   1.19753   1.20127   1.20423   1.20796
 Alpha virt. eigenvalues --    1.21559   1.21750   1.22320   1.22499   1.23008
 Alpha virt. eigenvalues --    1.24090   1.24360   1.24733   1.25671   1.27089
 Alpha virt. eigenvalues --    1.27393   1.27542   1.28508   1.28865   1.29287
 Alpha virt. eigenvalues --    1.29864   1.30019   1.31285   1.31645   1.32219
 Alpha virt. eigenvalues --    1.32578   1.32993   1.33418   1.34876   1.34981
 Alpha virt. eigenvalues --    1.35429   1.36460   1.37048   1.38822   1.39667
 Alpha virt. eigenvalues --    1.40099   1.40898   1.43433   1.44002   1.45120
 Alpha virt. eigenvalues --    1.46025   1.46612   1.46850   1.48307   1.48651
 Alpha virt. eigenvalues --    1.49105   1.50707   1.51065   1.52829   1.53915
 Alpha virt. eigenvalues --    1.55365   1.56083   1.56716   1.57082   1.59452
 Alpha virt. eigenvalues --    1.60091   1.60952   1.61052   1.61701   1.62536
 Alpha virt. eigenvalues --    1.62874   1.63394   1.63985   1.64777   1.65776
 Alpha virt. eigenvalues --    1.66763   1.67202   1.67964   1.69055   1.69570
 Alpha virt. eigenvalues --    1.70188   1.70744   1.71841   1.72531   1.73137
 Alpha virt. eigenvalues --    1.74993   1.75697   1.76203   1.77398   1.78465
 Alpha virt. eigenvalues --    1.79002   1.80410   1.80741   1.81403   1.84078
 Alpha virt. eigenvalues --    1.84544   1.85409   1.85931   1.86710   1.88292
 Alpha virt. eigenvalues --    1.89092   1.89814   1.90896   1.91676   1.91964
 Alpha virt. eigenvalues --    1.92873   1.93740   1.93854   1.94555   1.95191
 Alpha virt. eigenvalues --    1.95469   1.95894   1.96903   1.97815   1.98805
 Alpha virt. eigenvalues --    1.98853   1.99113   2.00225   2.01112   2.01660
 Alpha virt. eigenvalues --    2.02117   2.02468   2.03251   2.04649   2.04871
 Alpha virt. eigenvalues --    2.06160   2.06653   2.07456   2.08296   2.09150
 Alpha virt. eigenvalues --    2.09829   2.11088   2.11697   2.12820   2.12986
 Alpha virt. eigenvalues --    2.15163   2.16467   2.17497   2.19133   2.21258
 Alpha virt. eigenvalues --    2.21883   2.22842   2.23520   2.24871   2.25924
 Alpha virt. eigenvalues --    2.28349   2.29730   2.30882   2.33148   2.34450
 Alpha virt. eigenvalues --    2.35272   2.36888   2.37212   2.37744   2.38614
 Alpha virt. eigenvalues --    2.40742   2.40987   2.41199   2.42182   2.42770
 Alpha virt. eigenvalues --    2.43333   2.45449   2.46454   2.47516   2.49323
 Alpha virt. eigenvalues --    2.49778   2.50684   2.51204   2.52766   2.54044
 Alpha virt. eigenvalues --    2.54478   2.54967   2.59438   2.61025   2.63486
 Alpha virt. eigenvalues --    2.64092   2.68167   2.69171   2.69687   2.70584
 Alpha virt. eigenvalues --    2.71219   2.71678   2.72015   2.73982   2.74728
 Alpha virt. eigenvalues --    2.75146   2.76231   2.77067   2.77475   2.78153
 Alpha virt. eigenvalues --    2.79108   2.79879   2.80618   2.81023   2.82000
 Alpha virt. eigenvalues --    2.83057   2.83341   2.83477   2.84989   2.87526
 Alpha virt. eigenvalues --    2.87981   2.88767   2.89298   2.90160   2.90908
 Alpha virt. eigenvalues --    2.91512   2.92600   2.93186   2.94669   2.95343
 Alpha virt. eigenvalues --    2.95691   2.97033   2.97532   2.99011   2.99766
 Alpha virt. eigenvalues --    3.00011   3.00285   3.01227   3.01616   3.02479
 Alpha virt. eigenvalues --    3.02823   3.03285   3.03929   3.04646   3.04960
 Alpha virt. eigenvalues --    3.05635   3.05908   3.06998   3.07595   3.08110
 Alpha virt. eigenvalues --    3.09158   3.09633   3.12375   3.13424   3.15649
 Alpha virt. eigenvalues --    3.17760   3.18303   3.19778   3.21029   3.22343
 Alpha virt. eigenvalues --    3.23388   3.24019   3.26796   3.28928   3.31355
 Alpha virt. eigenvalues --    3.31923   3.32286   3.32876   3.33961   3.35392
 Alpha virt. eigenvalues --    3.35875   3.37952   3.38319   3.40147   3.41191
 Alpha virt. eigenvalues --    3.42512   3.43741   3.44333   3.45581   3.46404
 Alpha virt. eigenvalues --    3.47137   3.47634   3.48731   3.49207   3.49698
 Alpha virt. eigenvalues --    3.51876   3.54851   3.55318   3.56599   3.58288
 Alpha virt. eigenvalues --    3.60162   3.60476   3.62028   3.62632   3.63827
 Alpha virt. eigenvalues --    3.64173   3.64900   3.67910   3.70848   3.72781
 Alpha virt. eigenvalues --    3.75135   3.78730   3.79070   3.80042   3.80793
 Alpha virt. eigenvalues --    3.81327   3.83213   3.84374   3.87046   3.87755
 Alpha virt. eigenvalues --    3.88587   3.89391   3.90261   3.94321   3.98085
 Alpha virt. eigenvalues --    3.99150   3.99667   4.08477   4.09411   4.14263
 Alpha virt. eigenvalues --    4.16692   4.21779   4.23061   4.28798   4.31006
 Alpha virt. eigenvalues --    4.31757   4.32846   4.47423   4.49370   4.73366
 Alpha virt. eigenvalues --    4.87653   4.88290   4.91451   4.91946   5.02385
 Alpha virt. eigenvalues --    5.04710   5.08616   5.15953   5.18981   5.19911
 Alpha virt. eigenvalues --    5.22673   5.23375   5.25549   5.26937   5.28916
 Alpha virt. eigenvalues --    5.32248   5.34543   5.35798   5.36183   5.38003
 Alpha virt. eigenvalues --    5.45962   5.48807   5.53516   5.55192   5.76283
 Alpha virt. eigenvalues --    5.93655   8.49817  17.61633  17.68122  17.69242
 Alpha virt. eigenvalues --   23.49104  23.51207  23.57151  23.70989  23.72367
 Alpha virt. eigenvalues --   23.77020  23.82208  23.87626  23.96303  23.97806
 Alpha virt. eigenvalues --   23.98990  23.99017  24.02304  24.09797  24.12165
 Alpha virt. eigenvalues --   24.13277  24.13337  24.17520  24.20321  24.20885
 Alpha virt. eigenvalues --   24.22540  24.26260  24.28677  24.29070  24.29505
 Alpha virt. eigenvalues --   35.58636  49.86038  49.87299  49.98915  50.03969
 Alpha virt. eigenvalues --   50.06517  50.07499  50.13160 189.54608
 Electronic spatial extent (au):  <R**2>=         155317.6721
 Charge=              0.0000 electrons
 Dipole moment (field-independent basis, Debye):
    X=            -17.5469    Y=             -3.5644    Z=             -7.0593  Tot=             19.2467
 Quadrupole moment (field-independent basis, Debye-Ang):
   XX=           -446.4641   YY=           -214.4019   ZZ=           -308.7113
   XY=            -61.9419   XZ=           -220.6526   YZ=            -65.4658
 Traceless Quadrupole moment (field-independent basis, Debye-Ang):
   XX=           -123.2717   YY=            108.7905   ZZ=             14.4812
   XY=            -61.9419   XZ=           -220.6526   YZ=            -65.4658
 Octapole moment (field-independent basis, Debye-Ang**2):
  XXX=          -8200.5193  YYY=          -2155.9279  ZZZ=          -5895.5649  XYY=          -1996.9712
  XXY=          -1328.6235  XXZ=          -4532.3527  XZZ=          -4439.5719  YZZ=          -1584.7396
  YYZ=          -1709.5095  XYZ=           -764.9508
 Hexadecapole moment (field-independent basis, Debye-Ang**3):
 XXXX=        -141252.1348 YYYY=         -19682.0187 ZZZZ=         -91540.0687 XXXY=         -27075.9879
 XXXZ=         -76820.2736 YYYX=         -21855.0479 YYYZ=         -14428.8531 ZZZX=         -71044.6888
 ZZZY=         -24844.0325 XXYY=         -23013.8705 XXZZ=         -66966.1521 YYZZ=         -18509.5918
 XXYZ=         -12883.9840 YYXZ=         -15587.1668 ZZXY=         -16701.8827
 N-N= 3.776884314618D+03 E-N=-1.212644302166D+04  KE= 1.950594933646D+03
  Exact polarizability: 391.574 114.936 339.567 -91.601-130.273 373.355
 Approx polarizability: 424.496  87.317 429.436 -88.760-118.540 444.360
 No NMR shielding tensors so no spin-rotation constants.
 Leave Link  601 at Wed Jan 13 23:00:32 2021, MaxMem=  5368709120 cpu:        10.7
 (Enter /usr/local/bin/G09/G09d//g09/l602.exe)
 FitSet:  NAtFit=    61 NAtPot=    61 NAtFrz=     0 MDM=    65 TotChg=   0.00000
 Breneman (CHELPG) radii used.
 Generate Potential Derived Charges using the Breneman model, NDens= 1.
 Grid spacing= 0.300 Box extension= 2.800
 NStep X,Y,Z=   62     50     52   Total possible points=      161200
 Number of Points to Fit=   30042

 **********************************************************************

            Electrostatic Properties Using The SCF Density

 **********************************************************************

       Atomic Center    1 is at   4.981328  0.071552 10.993252
       Atomic Center    2 is at   5.237190 -0.321152 11.796859
       Atomic Center    3 is at   3.721703 -0.115648 10.538604
       Atomic Center    4 is at   3.115443 -0.622336 11.027606
       Atomic Center    5 is at   3.348624  0.456768  9.338043
       Atomic Center    6 is at   2.486605  0.336960  9.009138
       Atomic Center    7 is at   4.260512  1.200576  8.637825
       Atomic Center    8 is at   4.008560  1.584128  7.828959
       Atomic Center    9 is at   5.554116  1.395680  9.108582
       Atomic Center   10 is at   6.571241  2.139654  8.393078
       Atomic Center   11 is at   7.424292  2.184832  8.762582
       Atomic Center   12 is at   6.352534  2.762240  7.236733
       Atomic Center   13 is at   5.487633  2.713152  6.900267
       Atomic Center   14 is at   7.313628  3.510208  6.440030
       Atomic Center   15 is at   6.859881  4.162080  5.285657
       Atomic Center   16 is at   5.964942  4.086784  5.044526
       Atomic Center   17 is at   7.706735  4.910298  4.500788
       Atomic Center   18 is at   9.054207  5.005312  4.845144
       Atomic Center   19 is at   9.516534  4.350528  5.975355
       Atomic Center   20 is at  10.415511  4.407104  6.204980
       Atomic Center   21 is at   8.656140  3.617536  6.763017
       Atomic Center   22 is at   8.980968  3.189056  7.521586
       Atomic Center   23 is at   7.209337  0.995072 10.903999
       Atomic Center   24 is at   7.243593  0.545792 11.752479
       Atomic Center   25 is at   7.874112  0.624832 10.319170
       Atomic Center   26 is at   7.379610  1.931072 11.030893
       Atomic Center   27 is at  11.211774  5.821504  4.267876
       Atomic Center   28 is at  11.572521  4.932928  4.304859
       Atomic Center   29 is at  11.643778  6.314048  3.566836
       Atomic Center   30 is at  11.360398  6.262464  5.106986
       Atomic Center   31 is at   5.874834  0.814528 10.306020
       Atomic Center   32 is at   7.303978  5.576563  3.386193
       Atomic Center   33 is at   9.824057  5.755027  4.009650
       Atomic Center   34 is at   6.491451  5.358080  3.188784
       Atomic Center   35 is at  11.625734  3.489158  8.897037
       Atomic Center   36 is at  11.799321  4.840243  8.824879
       Atomic Center   37 is at  11.333829  5.398848  9.405271
       Atomic Center   38 is at  12.684164  5.393856  7.871531
       Atomic Center   39 is at  12.895367  6.789120  7.750719
       Atomic Center   40 is at  12.443058  7.374848  8.313851
       Atomic Center   41 is at  13.756273  7.278336  6.816602
       Atomic Center   42 is at  13.881943  8.196864  6.744115
       Atomic Center   43 is at  14.450900  6.418048  5.966807
       Atomic Center   44 is at  15.035548  6.766656  5.332174
       Atomic Center   45 is at  14.279507  5.076032  6.059348
       Atomic Center   46 is at  14.754396  4.512768  5.493257
       Atomic Center   47 is at  13.388097  4.521920  7.004971
       Atomic Center   48 is at  13.186172  3.129984  7.116085
       Atomic Center   49 is at  13.649195  2.551744  6.553445
       Atomic Center   50 is at  12.324882  2.624128  8.035244
       Atomic Center   51 is at  12.196412  1.704768  8.095239
       Atomic Center   52 is at   9.413483  3.682848 10.235176
       Atomic Center   53 is at  11.304968  2.659072 11.327088
       Atomic Center   54 is at  10.131317  1.509414  9.570298
       Atomic Center   55 is at  10.537122  2.790195 10.108447
       Atomic Center   56 is at   3.560232  2.189824  5.300286
       Atomic Center   57 is at   4.022351  2.146560  4.620450
       Atomic Center   58 is at   3.325427  3.020160  5.397922
       Atomic Center   59 is at   4.825874  4.922944  2.761915
       Atomic Center   60 is at   4.705227  4.293120  2.368577
       Atomic Center   61 is at   4.096599  5.366400  2.843607
   30042 points will be used for fitting atomic charges
 Fitting point charges to electrostatic potential
 Charges from ESP fit, RMS=   0.00425 RRMS=   0.11096:
 ESP charges:
               1
     1  C    0.084733
     2  H    0.132203
     3  C   -0.253526
     4  H    0.158499
     5  C    0.134000
     6  H    0.096203
     7  C   -0.432854
     8  H    0.285144
     9  C    0.500233
    10  C   -0.494274
    11  H    0.291650
    12  C    0.059576
    13  H    0.082606
    14  C    0.086759
    15  C   -0.474701
    16  H    0.195364
    17  C    0.399746
    18  C    0.317285
[...]
     6         -2.81089519         -5.41206758        -20.70889147
     6         -4.26284679         -3.70229252        -22.05962057
     1         -4.00593757         -3.51630478        -23.78737083
     6         -6.08590488         -2.27709074        -20.86671626
     1         -7.05222768         -1.14639724        -21.80216480
     6        -13.67937689          3.66575853        -20.32650640
     1        -15.01092507          4.79840688        -20.81638508
     1        -12.09309225          4.29836806        -20.93688205
     1        -13.99040148          2.02551671        -21.03538099
     6         -0.40913313         -6.61410668        -24.31156246
     1          0.00172555         -4.87992172        -24.64773308
     1          1.00358157         -7.66601787        -24.74230925
     1         -1.84766214         -7.09813457        -25.30353921
     7        -13.59525394          3.47757705        -17.54971787
     8         -1.72681306         -7.38364483        -16.88222421
     8         -0.97638497         -6.90595444        -21.71850233
     1         -1.93741058         -7.23989482        -15.26908078
     6         -7.53342540         -0.60052127        -27.41704642
     6         -7.59595830         -3.07436500        -28.13893067
     1         -9.07099461         -4.00903287        -27.93473405
     6         -5.42747016         -4.22137294        -29.19634048
     6         -5.38863717         -6.78485416        -29.96476947
     1         -6.83050636         -7.77245391        -29.78081405
     6         -3.25597433         -7.81208070        -30.97173212
     1         -3.25244867         -9.50032265        -31.45945425
     6         -1.07669247         -6.36241323        -31.27838537
     1          0.36825208         -7.09027674        -31.96776825
     6         -1.04976856         -3.89763184        -30.57758265
     1          0.40867581         -2.94718215        -30.80625055
     6         -3.20969436         -2.75394109        -29.50333000
     6         -3.22572545         -0.19781919        -28.74532838
     1         -1.77851780          0.77865863        -28.95070388
     6         -5.32901797          0.85473889        -27.72151310
     1         -5.31290119          2.53948822        -27.22001744
     8        -11.52228871         -1.00548007        -24.60096030
     8        -11.76377897          1.70431016        -28.25821997
     8         -9.33786342          2.93353731        -24.61620634
    16        -10.26348074          0.85701139        -26.13657407
     8         -7.00626416         -1.34830215        -10.57378645
     1         -5.48270055         -1.39863995        -10.88359821
     1         -7.54218998         -2.89867909        -10.52751819
     8         -2.33382274         -6.97644270        -11.95140465
     1         -1.59848150         -5.98193292        -11.25050291
     1         -3.11813859         -7.93507682        -10.90679713

 Electric dipole moment (dipole orientation):
 (Debye = 10**-18 statcoulomb cm , SI units = C m)
                  (au)            (Debye)         (10**-30 SI)
   Tot        0.757222D+01      0.192467D+02      0.641999D+02
   x          0.000000D+00      0.000000D+00      0.000000D+00
   y          0.000000D+00      0.000000D+00      0.000000D+00
   z          0.757222D+01      0.192467D+02      0.641999D+02

 Dipole polarizability, Alpha (dipole orientation).
 (esu units = cm**3 , SI units = C**2 m**2 J**-1)
 Alpha(0;0):
               (au)            (10**-24 esu)      (10**-40 SI)
   iso        0.368165D+03      0.545564D+02      0.607022D+02
   aniso      0.343228D+03      0.508611D+02      0.565906D+02
   xx         0.400618D+03      0.593655D+02      0.660531D+02
   yx        -0.157990D+03     -0.234117D+02     -0.260491D+02
   yy         0.356685D+03      0.528553D+02      0.588094D+02
   zx        -0.935470D+02     -0.138622D+02     -0.154238D+02
   zy         0.688765D+02      0.102064D+02      0.113562D+02
   zz         0.347192D+03      0.514485D+02      0.572442D+02
 Alpha(-w;w) w=  632.8nm:
                  (au)         (10**-24 esu)      (10**-40 SI)
   iso        0.421565D+03      0.624695D+02      0.695067D+02
   aniso      0.476623D+03      0.706283D+02      0.785845D+02
   xx         0.476293D+03      0.705793D+02      0.785300D+02
   yx        -0.214698D+03     -0.318150D+02     -0.353990D+02
   yy         0.409341D+03      0.606580D+02      0.674912D+02
   zx        -0.131596D+03     -0.195005D+02     -0.216972D+02
   zy         0.991710D+02      0.146956D+02      0.163511D+02
   zz         0.379061D+03      0.561711D+02      0.624988D+02

 First dipole hyperpolarizability, Beta (dipole orientation).
 ||, _|_  parallel and perpendicular components, (z) with respect to z axis,
 vector components x,y,z.  Values do not include the 1/n! factor of 1/2.
 (esu units = statvolt**-1 cm**4 , SI units = C**3 m**3 J**-2)
 Beta(0;0,0):
               (au)            (10**-30 esu)      (10**-50 SI)
   || (z)     0.294776D+04      0.254663D+02      0.945157D+01
   _|_(z)     0.982585D+03      0.848877D+01      0.315052D+01
   x         -0.237123D+05     -0.204856D+03     -0.760303D+02
   y          0.188480D+05      0.162832D+03      0.604335D+02
   z          0.147388D+05      0.127332D+03      0.472579D+02
   ||         0.673722D+04      0.582044D+02      0.216020D+02
   xxx       -0.410005D+04     -0.354213D+02     -0.131463D+02
   xxy        0.318536D+04      0.275190D+02      0.102134D+02
   yxy       -0.250557D+04     -0.216462D+02     -0.803377D+01
   yyy        0.202594D+04      0.175026D+02      0.649590D+01
   xxz        0.248473D+04      0.214661D+02      0.796695D+01
   yxz       -0.196332D+04     -0.169615D+02     -0.629511D+01
   yyz        0.153870D+04      0.132932D+02      0.493364D+01
   zxz       -0.129849D+04     -0.112179D+02     -0.416342D+01
   zyz        0.107137D+04      0.925582D+01      0.343520D+01
   zzz        0.889493D+03      0.768453D+01      0.285204D+01
 Beta(-w;w,0) w=  632.8nm:
                  (au)         (10**-30 esu)      (10**-50 SI)
   || (z)     0.745283D+04      0.643866D+02      0.238965D+02
   _|_(z)     0.252414D+04      0.218066D+02      0.809332D+01
   x         -0.621195D+05     -0.536664D+03     -0.199178D+03
   y          0.492649D+05      0.425610D+03      0.157961D+03
   z          0.372641D+05      0.321933D+03      0.119482D+03
   ||         0.175208D+05      0.151366D+03      0.561781D+02
   xxx       -0.107217D+05     -0.926274D+02     -0.343778D+02
   yxx        0.838343D+04      0.724263D+02      0.268803D+02
   yyx       -0.658885D+04     -0.569225D+02     -0.211262D+02
   zxx        0.626917D+04      0.541608D+02      0.201012D+02
   zyx       -0.492530D+04     -0.425508D+02     -0.157923D+02
   zzx       -0.351434D+04     -0.303612D+02     -0.112682D+02
   xxy        0.839455D+04      0.725223D+02      0.269159D+02
   yxy       -0.663101D+04     -0.572867D+02     -0.212614D+02
   yyy        0.529855D+04      0.457754D+02      0.169891D+02
   zxy       -0.499001D+04     -0.431098D+02     -0.159998D+02
   zyy        0.392150D+04      0.338787D+02      0.125738D+02
   zzy        0.287808D+04      0.248643D+02      0.922815D+01
   xxz        0.632903D+04      0.546779D+02      0.202931D+02
   yxz       -0.502944D+04     -0.434505D+02     -0.161262D+02
   yyz        0.398126D+04      0.343950D+02      0.127654D+02
   zxz       -0.329457D+04     -0.284625D+02     -0.105636D+02
   zyz        0.266486D+04      0.230223D+02      0.854451D+01
   zzz        0.219083D+04      0.189270D+02      0.702459D+01
 Beta(-2w;w,w) w=  632.8nm:
                  (au)         (10**-30 esu)      (10**-50 SI)
   || (z)    -0.837463D+04     -0.723503D+02     -0.268521D+02
   _|_(z)     0.408918D+03      0.353274D+01      0.131114D+01
   x          0.950089D+05      0.820803D+03      0.304633D+03
   y         -0.791767D+05     -0.684025D+03     -0.253869D+03
   z         -0.418732D+05     -0.361752D+03     -0.134261D+03
   ||         0.261144D+05      0.225608D+03      0.837321D+02
   xxx        0.163066D+05      0.140876D+03      0.522848D+02
   yxx       -0.138505D+05     -0.119658D+03     -0.444098D+02
   zxx       -0.364413D+04     -0.314824D+02     -0.116844D+02
   xyx       -0.138581D+05     -0.119723D+03     -0.444341D+02
   yyx        0.117276D+05      0.101317D+03      0.376029D+02
   zyx        0.277190D+04      0.239470D+02      0.888770D+01
   xyy        0.109961D+05      0.949973D+02      0.352573D+02
   yyy       -0.927643D+04     -0.801411D+02     -0.297436D+02
   zyy       -0.175869D+04     -0.151937D+02     -0.563900D+01
   xzx       -0.815856D+04     -0.704836D+02     -0.261593D+02
   yzx        0.634742D+04      0.548368D+02      0.203521D+02
   zzx        0.581246D+04      0.502151D+02      0.186368D+02
   xzy        0.864040D+04      0.746463D+02      0.277042D+02
   yzy       -0.684565D+04     -0.591411D+02     -0.219496D+02
   zzy       -0.514594D+04     -0.444569D+02     -0.164997D+02
   xzz        0.130223D+02      0.112502D+00      0.417542D-01
   yzz        0.511147D+03      0.441592D+01      0.163892D+01
   zzz       -0.215397D+04     -0.186087D+02     -0.690642D+01

 Second dipole hyperpolarizability, Gamma (dipole orientation).
 ||, _|_  isotropic parallel and perpendicular components.
 Values do not include the 1/n! factor of 1/6.
 (esu units = statvolt**-2 cm**5 , SI units = C**4 m**4 J**-3)
 Gamma(0;0,0,0):
               (au)            (10**-36 esu)      (10**-61 SI)
   ||         0.292400D+06      0.147273D+03      0.182322D+03
   _|_        0.974665D+05      0.490909D+02      0.607741D+02
   xxxx       0.342015D+06      0.172263D+03      0.213259D+03
   xxyx      -0.231307D+06     -0.116502D+03     -0.144229D+03
   xxyy       0.192177D+06      0.967938D+02      0.119830D+03
   yxyy      -0.149877D+06     -0.754883D+02     -0.934538D+02
   yyyy       0.163524D+06      0.823623D+02      0.101964D+03
   xxzx      -0.186618D+06     -0.939941D+02     -0.116364D+03
   xxzy       0.144629D+06      0.728450D+02      0.901814D+02
   yxzy      -0.117849D+06     -0.593572D+02     -0.734836D+02
   yyzy       0.978309D+05      0.492745D+02      0.610013D+02
   xxzz       0.124291D+06      0.626014D+02      0.775000D+02
   yxzz      -0.861581D+05     -0.433952D+02     -0.537229D+02
   yyzz       0.903767D+05      0.455200D+02      0.563533D+02
   zxzz      -0.575189D+05     -0.289705D+02     -0.358652D+02
   zyzz       0.478688D+05      0.241101D+02      0.298480D+02
   zzzz       0.142778D+06      0.719128D+02      0.890273D+02
 Gamma(-w;w,0,0) w=  632.8nm:
                  (au)         (10**-36 esu)      (10**-61 SI)
   ||         0.107029D+07      0.539075D+03      0.667369D+03
   _|_        0.348181D+06      0.175368D+03      0.217104D+03
   xxxx       0.133921D+07      0.674521D+03      0.835050D+03
   yxxx      -0.100553D+07     -0.506456D+03     -0.626987D+03
   yyxx       0.800965D+06      0.403422D+03      0.499432D+03
   zxxx      -0.759853D+06     -0.382715D+03     -0.473797D+03
   zyxx       0.592368D+06      0.298358D+03      0.369364D+03
   zzxx       0.468886D+06      0.236164D+03      0.292368D+03
   xxyx      -0.100724D+07     -0.507318D+03     -0.628054D+03
   yxyx       0.806991D+06      0.406457D+03      0.503190D+03
   yyyx      -0.636848D+06     -0.320761D+03     -0.397099D+03
   zxyx       0.600917D+06      0.302664D+03      0.374695D+03
   zyyx      -0.478290D+06     -0.240900D+03     -0.298232D+03
   zzyx      -0.361740D+06     -0.182198D+03     -0.225559D+03
   xxyy       0.814922D+06      0.410451D+03      0.508135D+03
   yxyy      -0.646860D+06     -0.325804D+03     -0.403342D+03
   yyyy       0.568885D+06      0.286530D+03      0.354722D+03
   zxyy      -0.489670D+06     -0.246632D+03     -0.305328D+03
   zyyy       0.394021D+06      0.198457D+03      0.245687D+03
   zzyy       0.322764D+06      0.162566D+03      0.201255D+03
   xxzx      -0.749969D+06     -0.377736D+03     -0.467634D+03
   yxzx       0.591616D+06      0.297979D+03      0.368895D+03
   yyzx      -0.474021D+06     -0.238750D+03     -0.295570D+03
   zxzx       0.432704D+06      0.217940D+03      0.269808D+03
   zyzx      -0.328410D+06     -0.165410D+03     -0.204776D+03
   zzzx      -0.227399D+06     -0.114534D+03     -0.141792D+03
   xxzy       0.590690D+06      0.297513D+03      0.368318D+03
   yxzy      -0.476747D+06     -0.240123D+03     -0.297270D+03
   yyzy       0.387062D+06      0.194951D+03      0.241348D+03
   zxzy      -0.331849D+06     -0.167142D+03     -0.206921D+03
   zyzy       0.291773D+06      0.146957D+03      0.181931D+03
   zzzy       0.185034D+06      0.931961D+02      0.115376D+03
   xxzz       0.449016D+06      0.226156D+03      0.279978D+03
   yxzz      -0.344770D+06     -0.173650D+03     -0.214977D+03
   yyzz       0.302942D+06      0.152583D+03      0.188896D+03
   zxzz      -0.211957D+06     -0.106756D+03     -0.132163D+03
   zyzz       0.171235D+06      0.862460D+02      0.106772D+03
   zzzz       0.348257D+06      0.175407D+03      0.217152D+03
 Gamma(-2w;w,w,0) w=  632.8nm:
                  (au)         (10**-36 esu)      (10**-61 SI)
   ||        -0.184871D+07     -0.931139D+03     -0.115274D+04
   _|_        0.888320D+07      0.447420D+04      0.217104D+03
   xxxx      -0.266532D+07     -0.134244D+04     -0.166193D+04
   yxxx       0.144965D+07      0.730143D+03      0.903910D+03
   zxxx       0.610267D+07      0.307373D+04      0.380524D+04
   xyxx       0.787018D+07      0.396397D+04      0.490736D+04
   yyxx      -0.577397D+07     -0.290817D+04     -0.360029D+04
   zyxx      -0.715132D+07     -0.360190D+04     -0.445912D+04
   xyyx      -0.621359D+07     -0.312960D+04     -0.387441D+04
   yyyx       0.447520D+07      0.225402D+04      0.279046D+04
   zyyx       0.622093D+07      0.313329D+04      0.387899D+04
   xzxx       0.390458D+07      0.196662D+04      0.243465D+04
   yzxx      -0.337114D+07     -0.169794D+04     -0.210204D+04
   zzxx       0.249651D+06      0.125741D+03      0.155667D+03
   xzyx      -0.136750D+08     -0.688770D+04     -0.852691D+04
   yzyx       0.114173D+08      0.575056D+04      0.711913D+04
   zzyx       0.345404D+07      0.173969D+04      0.215372D+04
   xzzx       0.436510D+08      0.219857D+05      0.272181D+05
   yzzx      -0.359138D+08     -0.180887D+05     -0.223936D+05
   zzzx      -0.138922D+08     -0.699710D+04     -0.866234D+04
   xxxy      -0.529997D+07     -0.266943D+04     -0.330473D+04
   yxxy       0.501933D+07      0.252808D+04      0.312974D+04
   zxxy      -0.318590D+07     -0.160464D+04     -0.198653D+04
   xyxy      -0.680736D+05     -0.342866D+02     -0.424465D+02
   yyxy      -0.486024D+06     -0.244796D+03     -0.303055D+03
   zyxy       0.402542D+07      0.202748D+04      0.251000D+04
   xyyy      -0.159272D+05     -0.802204D+01     -0.993121D+01
   yyyy       0.593844D+06      0.299101D+03      0.370284D+03
   zyyy      -0.357534D+07     -0.180079D+04     -0.222936D+04
   xzxy       0.121128D+08      0.610083D+04      0.755277D+04
   yzxy      -0.992342D+07     -0.499813D+04     -0.618763D+04
   zzxy      -0.404675D+07     -0.203823D+04     -0.252330D+04
   xzyy      -0.625137D+06     -0.314863D+03     -0.389797D+03
   yzyy       0.449609D+06      0.226454D+03      0.280348D+03
   zzyy       0.679704D+06      0.342346D+03      0.423821D+03
   xzzy      -0.651047D+07     -0.327912D+04     -0.405952D+04
   yzzy       0.528126D+07      0.266001D+04      0.329306D+04
   zzzy       0.442138D+07      0.222692D+04      0.275690D+04
   xxxz       0.547048D+07      0.275532D+04      0.341105D+04
   yxxz      -0.403720D+07     -0.203342D+04     -0.251735D+04
   zxxz      -0.472906D+07     -0.238188D+04     -0.294875D+04
   xyxz      -0.912748D+07     -0.459723D+04     -0.569133D+04
   yyxz       0.712403D+07      0.358816D+04      0.444210D+04
   zyxz       0.578367D+07      0.291306D+04      0.360634D+04
   xyyz       0.739091D+07      0.372258D+04      0.460852D+04
   yyyz      -0.571505D+07     -0.287850D+04     -0.356355D+04
   zyyz      -0.496810D+07     -0.250228D+04     -0.309780D+04
   xzxz      -0.217829D+08     -0.109714D+05     -0.135825D+05
   yzxz       0.181405D+08      0.913679D+04      0.113113D+05
   zzxz       0.603686D+07      0.304058D+04      0.376421D+04
   xzyz       0.250276D+08      0.126057D+05      0.156057D+05
   yzyz      -0.207584D+08     -0.104554D+05     -0.129437D+05
   zzyz      -0.775918D+07     -0.390806D+04     -0.483814D+04
   xzzz      -0.382561D+08     -0.192684D+05     -0.238541D+05
   yzzz       0.316018D+08      0.159168D+05      0.197049D+05
   zzzz       0.117837D+08      0.593507D+04      0.734756D+04

 ----------------------------------------------------------------------
 1\1\GINC-FLAME6\SP\RCAM-B3LYP\6-311+G(d)\C25H27N1O7S1\DANIELMACHADO\15
 -Jan-2021\0\\#p CAM-B3LYP/6-311+g(d) polar=gamma pop=chelpg density=cu
 rrent NoSymm\\ONL_VSNS_0_CAM-B3LYP\\0,1\C,0,4.981328,0.071552,10.99325
 2\H,0,5.23719,-0.321152,11.796859\C,0,3.721703,-0.115648,10.538604\H,0
 ,3.115443,-0.622336,11.027606\C,0,3.348624,0.456768,9.338043\H,0,2.486
 605,0.33696,9.009138\C,0,4.260512,1.200576,8.637825\H,0,4.00856,1.5841
 28,7.828959\C,0,5.554116,1.39568,9.108582\C,0,6.571241,2.139654,8.3930
 78\H,0,7.424292,2.184832,8.762582\C,0,6.352534,2.76224,7.236733\H,0,5.
 487633,2.713152,6.900267\C,0,7.313628,3.510208,6.44003\C,0,6.859881,4.
 16208,5.285657\H,0,5.964942,4.086784,5.044526\C,0,7.706735,4.910298,4.
 500788\C,0,9.054207,5.005312,4.845144\C,0,9.516534,4.350528,5.975355\H
 ,0,10.415511,4.407104,6.20498\C,0,8.65614,3.617536,6.763017\H,0,8.9809
 68,3.189056,7.521586\C,0,7.209337,0.995072,10.903999\H,0,7.243593,0.54
 5792,11.752479\H,0,7.874112,0.624832,10.31917\H,0,7.37961,1.931072,11.
 030893\C,0,11.211774,5.821504,4.267876\H,0,11.572521,4.932928,4.304859
 \H,0,11.643778,6.314048,3.566836\H,0,11.360398,6.262464,5.106986\N,0,5
 .874834,0.814528,10.30602\O,0,7.303978,5.576563,3.386193\O,0,9.824057,
 5.755027,4.00965\H,0,6.491451,5.35808,3.188784\C,0,11.625734,3.489158,
 8.897037\C,0,11.799321,4.840243,8.824879\H,0,11.333829,5.398848,9.4052
 71\C,0,12.684164,5.393856,7.871531\C,0,12.895367,6.78912,7.750719\H,0,
 12.443058,7.374848,8.313851\C,0,13.756273,7.278336,6.816602\H,0,13.881
 943,8.196864,6.744115\C,0,14.4509,6.418048,5.966807\H,0,15.035548,6.76
 6656,5.332174\C,0,14.279507,5.076032,6.059348\H,0,14.754396,4.512768,5
 .493257\C,0,13.388097,4.52192,7.004971\C,0,13.186172,3.129984,7.116085
 \H,0,13.649195,2.551744,6.553445\C,0,12.324882,2.624128,8.035244\H,0,1
 2.196412,1.704768,8.095239\O,0,9.413483,3.682848,10.235176\O,0,11.3049
 68,2.659072,11.327088\O,0,10.131317,1.509414,9.570298\S,0,10.537122,2.
 790195,10.108447\O,0,3.560232,2.189824,5.300286\H,0,4.022351,2.14656,4
 .62045\H,0,3.325427,3.02016,5.397922\O,0,4.825874,4.922944,2.761915\H,
 0,4.705227,4.29312,2.368577\H,0,4.096599,5.3664,2.843607\\Version=EM64
 L-G09RevD.01\HF=-1947.4182767\RMSD=4.478e-09\Dipole=-6.903499,-1.40233
 4,-2.7773432\Polar=391.5735894,114.9360842,339.5666502,-91.6010913,-13
 0.2725236,373.3550719\HyperPolar=-2307.3664035,-2129.8961812,-1939.478
 7791,-1796.59316,2337.2522034,2182.8539426,1950.7023189,-2553.5234577,
 -2131.9740738,2279.6816417\DQPolar=9025.546596,-2488.8831181,-6536.663
 4778,4293.9516711,4018.8674979,1091.6972575,2080.4236035,3117.377006,-
 5197.8006096,6640.0349657,-208.7410409,4108.3835218,-5149.2128141,-351
 6.4751703,8665.6879844,-2459.9236553,4718.6044583,505.3191685\Quadrupo
 le=-91.6494802,80.8830936,10.7663865,-46.0522973,-164.0497956,-48.6722
 014\PG=C01 [X(C25H27N1O7S1)]\\@


 DEMOCRATS BUY MOST OF THE BOOKS THAT HAVE BEEN
 BANNED; REPUBLICANS FORM CENSORSHIP COMMITTEES AND
 READ THEM AS A GROUP.
 Job cpu time:      10 days  9 hours 49 minutes 23.2 seconds.
 File lengths (MBytes):  RWF=   3503 Int=      0 D2E=      0 Chk=    122 Scr=      1
 Normal termination of Gaussian 09 at Fri Jan 15 01:43:28 2021.
Fri Jan 15 01:43:28 -02 2021
